Program Version,EnergyPlus-Linux-64 8.1.0.009, YMD=2015.05.11 16:22
1,5,Environment Title[],Latitude[deg],Longitude[deg],Time Zone[],Elevation[m]
2,6,Day of Simulation[],Month[],Day of Month[],DST Indicator[1=yes 0=no],Hour[],StartMinute[],EndMinute[],DayType
3,3,Cumulative Day of Simulation[],Month[],Day of Month[],DST Indicator[1=yes 0=no],DayType  ! When Daily Report Variables Requested
4,2,Cumulative Days of Simulation[],Month[]  ! When Monthly Report Variables Requested
5,1,Cumulative Days of Simulation[] ! When Run Period Report Variables Requested
796,1,FURNACE_DX_A_B_G_L HEATING COIL,Heating Coil Air Heating Rate [W] !Hourly
841,1,FURNACE_DX_B_C_H_G HEATING COIL,Heating Coil Air Heating Rate [W] !Hourly
846,1,FURNACE_DX_C_D_I_H HEATING COIL,Heating Coil Air Heating Rate [W] !Hourly
851,1,FURNACE_DX_D_E_J_I HEATING COIL,Heating Coil Air Heating Rate [W] !Hourly
856,1,FURNACE_DX_E_F_K_J HEATING COIL,Heating Coil Air Heating Rate [W] !Hourly
861,1,FURNACE_DX_L_K_F_A HEATING COIL,Heating Coil Air Heating Rate [W] !Hourly
866,1,FURNACE_DX_G_H_I_L HEATING COIL,Heating Coil Air Heating Rate [W] !Hourly
871,1,FURNACE_DX_I_J_K_L HEATING COIL,Heating Coil Air Heating Rate [W] !Hourly
875,1,FURNACE_DX_A_B_G_L COOLING COIL,Cooling Coil Total Cooling Rate [W] !Hourly
898,1,FURNACE_DX_B_C_H_G COOLING COIL,Cooling Coil Total Cooling Rate [W] !Hourly
901,1,FURNACE_DX_C_D_I_H COOLING COIL,Cooling Coil Total Cooling Rate [W] !Hourly
904,1,FURNACE_DX_D_E_J_I COOLING COIL,Cooling Coil Total Cooling Rate [W] !Hourly
907,1,FURNACE_DX_E_F_K_J COOLING COIL,Cooling Coil Total Cooling Rate [W] !Hourly
910,1,FURNACE_DX_L_K_F_A COOLING COIL,Cooling Coil Total Cooling Rate [W] !Hourly
913,1,FURNACE_DX_G_H_I_L COOLING COIL,Cooling Coil Total Cooling Rate [W] !Hourly
916,1,FURNACE_DX_I_J_K_L COOLING COIL,Cooling Coil Total Cooling Rate [W] !Hourly
End of Data Dictionary
1,San Francisco Intl Ap CA USA TMY3 WMO#=724940,  37.62,-122.40,  -8.00,   2.00
2,1, 1, 1, 0, 1, 0.00,60.00,Sunday         
796,0.0
841,0.0
846,0.0
851,0.0
856,0.0
861,0.0
866,0.0
871,0.0
875,0.0
898,0.0
901,0.0
904,0.0
907,0.0
910,0.0
913,0.0
916,0.0
2,1, 1, 1, 0, 2, 0.00,60.00,Sunday         
796,0.0
841,0.0
846,0.0
851,0.0
856,0.0
861,0.0
866,0.0
871,0.0
875,0.0
898,0.0
901,0.0
904,0.0
907,0.0
910,0.0
913,0.0
916,0.0
2,1, 1, 1, 0, 3, 0.00,60.00,Sunday         
796,0.0
841,0.0
846,0.0
851,0.0
856,0.0
861,0.0
866,0.0
871,0.0
875,0.0
898,0.0
901,0.0
904,0.0
907,0.0
910,0.0
913,0.0
916,0.0
2,1, 1, 1, 0, 4, 0.00,60.00,Sunday         
796,0.0
841,0.0
846,0.0
851,0.0
856,0.0
861,0.0
866,0.0
871,0.0
875,0.0
898,0.0
901,0.0
904,0.0
907,0.0
910,0.0
913,0.0
916,0.0
2,1, 1, 1, 0, 5, 0.00,60.00,Sunday         
796,0.0
841,0.0
846,0.0
851,0.0
856,0.0
861,0.0
866,0.0
871,0.0
875,0.0
898,0.0
901,0.0
904,0.0
907,0.0
910,0.0
913,0.0
916,0.0
2,1, 1, 1, 0, 6, 0.00,60.00,Sunday         
796,0.0
841,0.0
846,0.0
851,0.0
856,0.0
861,0.0
866,0.0
871,0.0
875,0.0
898,0.0
901,0.0
904,0.0
907,0.0
910,0.0
913,0.0
916,0.0
2,1, 1, 1, 0, 7, 0.00,60.00,Sunday         
796,0.0
841,0.0
846,0.0
851,0.0
856,0.0
861,0.0
866,0.0
871,0.0
875,0.0
898,0.0
901,0.0
904,0.0
907,0.0
910,0.0
913,0.0
916,0.0
2,1, 1, 1, 0, 8, 0.00,60.00,Sunday         
796,0.0
841,0.0
846,0.0
851,0.0
856,0.0
861,0.0
866,0.0
871,0.0
875,0.0
898,0.0
901,0.0
904,0.0
907,0.0
910,0.0
913,0.0
916,0.0
2,1, 1, 1, 0, 9, 0.00,60.00,Sunday         
796,0.0
841,0.0
846,0.0
851,0.0
856,0.0
861,0.0
866,0.0
871,0.0
875,0.0
898,0.0
901,0.0
904,0.0
907,0.0
910,0.0
913,0.0
916,0.0
2,1, 1, 1, 0,10, 0.00,60.00,Sunday         
796,0.0
841,0.0
846,0.0
851,0.0
856,0.0
861,0.0
866,0.0
871,0.0
875,0.0
898,0.0
901,0.0
904,0.0
907,0.0
910,0.0
913,0.0
916,0.0
2,1, 1, 1, 0,11, 0.00,60.00,Sunday         
796,0.0
841,0.0
846,0.0
851,0.0
856,0.0
861,0.0
866,0.0
871,0.0
875,0.0
898,0.0
901,0.0
904,0.0
907,0.0
910,0.0
913,0.0
916,0.0
2,1, 1, 1, 0,12, 0.00,60.00,Sunday         
796,0.0
841,0.0
846,0.0
851,0.0
856,0.0
861,0.0
866,0.0
871,0.0
875,0.0
898,0.0
901,0.0
904,0.0
907,0.0
910,0.0
913,0.0
916,0.0
2,1, 1, 1, 0,13, 0.00,60.00,Sunday         
796,0.0
841,0.0
846,0.0
851,0.0
856,0.0
861,0.0
866,0.0
871,0.0
875,0.0
898,0.0
901,0.0
904,0.0
907,0.0
910,0.0
913,0.0
916,0.0
2,1, 1, 1, 0,14, 0.00,60.00,Sunday         
796,0.0
841,0.0
846,0.0
851,0.0
856,0.0
861,0.0
866,0.0
871,0.0
875,0.0
898,0.0
901,0.0
904,0.0
907,0.0
910,0.0
913,0.0
916,0.0
2,1, 1, 1, 0,15, 0.00,60.00,Sunday         
796,0.0
841,0.0
846,0.0
851,0.0
856,0.0
861,0.0
866,0.0
871,0.0
875,0.0
898,0.0
901,0.0
904,0.0
907,0.0
910,0.0
913,0.0
916,0.0
2,1, 1, 1, 0,16, 0.00,60.00,Sunday         
796,0.0
841,0.0
846,0.0
851,0.0
856,0.0
861,0.0
866,0.0
871,0.0
875,0.0
898,0.0
901,0.0
904,0.0
907,0.0
910,0.0
913,0.0
916,0.0
2,1, 1, 1, 0,17, 0.00,60.00,Sunday         
796,0.0
841,0.0
846,0.0
851,0.0
856,0.0
861,0.0
866,0.0
871,0.0
875,0.0
898,0.0
901,0.0
904,0.0
907,0.0
910,0.0
913,0.0
916,0.0
2,1, 1, 1, 0,18, 0.00,60.00,Sunday         
796,0.0
841,0.0
846,0.0
851,0.0
856,0.0
861,0.0
866,0.0
871,0.0
875,0.0
898,0.0
901,0.0
904,0.0
907,0.0
910,0.0
913,0.0
916,0.0
2,1, 1, 1, 0,19, 0.00,60.00,Sunday         
796,0.0
841,0.0
846,0.0
851,0.0
856,0.0
861,0.0
866,0.0
871,0.0
875,0.0
898,0.0
901,0.0
904,0.0
907,0.0
910,0.0
913,0.0
916,0.0
2,1, 1, 1, 0,20, 0.00,60.00,Sunday         
796,0.0
841,0.0
846,0.0
851,0.0
856,0.0
861,0.0
866,0.0
871,0.0
875,0.0
898,0.0
901,0.0
904,0.0
907,0.0
910,0.0
913,0.0
916,0.0
2,1, 1, 1, 0,21, 0.00,60.00,Sunday         
796,0.0
841,0.0
846,0.0
851,0.0
856,0.0
861,0.0
866,0.0
871,0.0
875,0.0
898,0.0
901,0.0
904,0.0
907,0.0
910,0.0
913,0.0
916,0.0
2,1, 1, 1, 0,22, 0.00,60.00,Sunday         
796,0.0
841,0.0
846,0.0
851,0.0
856,0.0
861,0.0
866,0.0
871,0.0
875,0.0
898,0.0
901,0.0
904,0.0
907,0.0
910,0.0
913,0.0
916,0.0
2,1, 1, 1, 0,23, 0.00,60.00,Sunday         
796,0.0
841,0.0
846,0.0
851,0.0
856,0.0
861,0.0
866,0.0
871,0.0
875,0.0
898,0.0
901,0.0
904,0.0
907,0.0
910,0.0
913,0.0
916,0.0
2,1, 1, 1, 0,24, 0.00,60.00,Sunday         
796,0.0
841,0.0
846,0.0
851,0.0
856,0.0
861,0.0
866,0.0
871,0.0
875,0.0
898,0.0
901,0.0
904,0.0
907,0.0
910,0.0
913,0.0
916,0.0
2,2, 1, 2, 0, 1, 0.00,60.00,Monday         
796,0.0
841,0.0
846,0.0
851,0.0
856,0.0
861,0.0
866,0.0
871,0.0
875,0.0
898,0.0
901,0.0
904,0.0
907,0.0
910,0.0
913,0.0
916,0.0
2,2, 1, 2, 0, 2, 0.00,60.00,Monday         
796,0.0
841,0.0
846,0.0
851,0.0
856,0.0
861,0.0
866,0.0
871,0.0
875,0.0
898,0.0
901,0.0
904,0.0
907,0.0
910,0.0
913,0.0
916,0.0
2,2, 1, 2, 0, 3, 0.00,60.00,Monday         
796,0.0
841,0.0
846,0.0
851,0.0
856,0.0
861,0.0
866,0.0
871,0.0
875,0.0
898,0.0
901,0.0
904,0.0
907,0.0
910,0.0
913,0.0
916,0.0
2,2, 1, 2, 0, 4, 0.00,60.00,Monday         
796,0.0
841,0.0
846,0.0
851,0.0
856,0.0
861,0.0
866,0.0
871,0.0
875,0.0
898,0.0
901,0.0
904,0.0
907,0.0
910,0.0
913,0.0
916,0.0
2,2, 1, 2, 0, 5, 0.00,60.00,Monday         
796,0.0
841,0.0
846,0.0
851,0.0
856,0.0
861,0.0
866,0.0
871,0.0
875,0.0
898,0.0
901,0.0
904,0.0
907,0.0
910,0.0
913,0.0
916,0.0
2,2, 1, 2, 0, 6, 0.00,60.00,Monday         
796,0.0
841,0.0
846,0.0
851,0.0
856,0.0
861,0.0
866,0.0
871,0.0
875,0.0
898,0.0
901,0.0
904,0.0
907,0.0
910,0.0
913,0.0
916,0.0
2,2, 1, 2, 0, 7, 0.00,60.00,Monday         
796,0.0
841,0.0
846,0.0
851,0.0
856,0.0
861,0.0
866,0.0
871,0.0
875,0.0
898,0.0
901,0.0
904,0.0
907,0.0
910,0.0
913,0.0
916,0.0
2,2, 1, 2, 0, 8, 0.00,60.00,Monday         
796,4538.80424843452
841,1014.80201728167
846,2422.09944320561
851,1334.39617954429
856,744.14771422732
861,2289.33994634317
866,3551.12075073723
871,1831.56196312015
875,0.0
898,0.0
901,0.0
904,0.0
907,0.0
910,0.0
913,0.0
916,0.0
2,2, 1, 2, 0, 9, 0.00,60.00,Monday         
796,3773.84196536545
841,675.970196587669
846,1786.97114545962
851,975.086051098667
856,454.831959736648
861,1975.97362628702
866,3036.30886580534
871,1574.49910173837
875,0.0
898,0.0
901,0.0
904,0.0
907,0.0
910,0.0
913,0.0
916,0.0
2,2, 1, 2, 0,10, 0.00,60.00,Monday         
796,3073.7608712984
841,438.805510309223
846,1115.72853179413
851,697.702857094604
856,177.637751839277
861,1640.37581107072
866,2495.59258617306
871,1297.57556393514
875,0.0
898,0.0
901,0.0
904,0.0
907,0.0
910,0.0
913,0.0
916,0.0
2,2, 1, 2, 0,11, 0.00,60.00,Monday         
796,2540.14194564484
841,338.327183211705
846,625.393396722805
851,558.491889440869
856,9.89463294303147
861,1385.09647447322
866,2094.05515590877
871,1092.37541769062
875,0.0
898,0.0
901,0.0
904,0.0
907,0.0
910,0.0
913,0.0
916,0.0
2,2, 1, 2, 0,12, 0.00,60.00,Monday         
796,2198.88156353758
841,309.180392375627
846,184.481569400345
851,503.882145036035
856,0.0
861,1224.3430587273
866,1854.0278199329
871,968.728437699814
875,0.0
898,0.0
901,0.0
904,0.0
907,0.0
910,0.0
913,0.0
916,0.0
2,2, 1, 2, 0,13, 0.00,60.00,Monday         
796,2001.73224201779
841,313.176565684529
846,0.0
851,495.913635334865
856,0.0
861,1127.57069178519
866,1735.26488640843
871,906.233639567541
875,0.0
898,0.0
901,0.0
904,0.0
907,0.0
910,0.0
913,0.0
916,0.0
2,2, 1, 2, 0,14, 0.00,60.00,Monday         
796,1833.54716387502
841,290.897482406519
846,0.0
851,463.753013727544
856,0.0
861,1016.84823793448
866,1632.87328915458
871,852.442390661691
875,0.0
898,0.0
901,0.0
904,0.0
907,0.0
910,0.0
913,0.0
916,0.0
2,2, 1, 2, 0,15, 0.00,60.00,Monday         
796,1839.49241046467
841,309.396408040721
846,0.163073732061459
851,484.54991318116
856,0.0
861,962.778562812448
866,1660.21554363757
871,864.02489552848
875,0.0
898,0.0
901,0.0
904,0.0
907,0.0
910,0.0
913,0.0
916,0.0
2,2, 1, 2, 0,16, 0.00,60.00,Monday         
796,1790.79982816538
841,313.520964987279
846,29.683020134369
851,482.810425136002
856,0.0
861,883.112471082815
866,1603.45826647319
871,833.812600962389
875,0.0
898,0.0
901,0.0
904,0.0
907,0.0
910,0.0
913,0.0
916,0.0
2,2, 1, 2, 0,17, 0.00,60.00,Monday         
796,1870.50353353882
841,354.016761743511
846,340.976163585013
851,523.476925567628
856,0.0
861,938.166303308863
866,1618.70005581182
871,839.741936880756
875,0.0
898,0.0
901,0.0
904,0.0
907,0.0
910,0.0
913,0.0
916,0.0
2,2, 1, 2, 0,18, 0.00,60.00,Monday         
796,1928.31798425643
841,383.290888626985
846,539.723838668926
851,555.420194350517
856,0.551713837254737
861,977.84039485027
866,1655.19568174684
871,856.279688936208
875,0.0
898,0.0
901,0.0
904,0.0
907,0.0
910,0.0
913,0.0
916,0.0
2,2, 1, 2, 0,19, 0.00,60.00,Monday         
796,3072.53511316552
841,669.801343482234
846,1498.15196051161
851,959.300029591566
856,310.847095560205
861,1643.41686783822
866,2916.60553726588
871,1484.93435265305
875,0.0
898,0.0
901,0.0
904,0.0
907,0.0
910,0.0
913,0.0
916,0.0
2,2, 1, 2, 0,20, 0.00,60.00,Monday         
796,3061.88576085907
841,677.118589245611
846,1566.26659434327
851,964.728663332388
856,358.861142459795
861,1631.48131860354
866,2903.91977878104
871,1477.34511271458
875,0.0
898,0.0
901,0.0
904,0.0
907,0.0
910,0.0
913,0.0
916,0.0
2,2, 1, 2, 0,21, 0.00,60.00,Monday         
796,3196.39402503993
841,720.234533310642
846,1737.16899168067
851,1019.60129791151
856,432.885404872352
861,1703.21155988998
866,3037.18137724853
871,1542.7219509866
875,0.0
898,0.0
901,0.0
904,0.0
907,0.0
910,0.0
913,0.0
916,0.0
2,2, 1, 2, 0,22, 0.00,60.00,Monday         
796,0.0
841,0.0
846,0.0
851,0.0
856,0.0
861,0.0
866,0.0
871,0.0
875,0.0
898,0.0
901,0.0
904,0.0
907,0.0
910,0.0
913,0.0
916,0.0
2,2, 1, 2, 0,23, 0.00,60.00,Monday         
796,0.0
841,0.0
846,0.0
851,0.0
856,0.0
861,0.0
866,0.0
871,0.0
875,0.0
898,0.0
901,0.0
904,0.0
907,0.0
910,0.0
913,0.0
916,0.0
2,2, 1, 2, 0,24, 0.00,60.00,Monday         
796,0.0
841,0.0
846,0.0
851,0.0
856,0.0
861,0.0
866,0.0
871,0.0
875,0.0
898,0.0
901,0.0
904,0.0
907,0.0
910,0.0
913,0.0
916,0.0
2,3, 1, 3, 0, 1, 0.00,60.00,Tuesday        
796,0.0
841,0.0
846,0.0
851,0.0
856,0.0
861,0.0
866,0.0
871,0.0
875,0.0
898,0.0
901,0.0
904,0.0
907,0.0
910,0.0
913,0.0
916,0.0
2,3, 1, 3, 0, 2, 0.00,60.00,Tuesday        
796,0.0
841,0.0
846,0.0
851,0.0
856,0.0
861,0.0
866,0.0
871,0.0
875,0.0
898,0.0
901,0.0
904,0.0
907,0.0
910,0.0
913,0.0
916,0.0
2,3, 1, 3, 0, 3, 0.00,60.00,Tuesday        
796,0.0
841,0.0
846,0.0
851,0.0
856,0.0
861,0.0
866,0.0
871,0.0
875,0.0
898,0.0
901,0.0
904,0.0
907,0.0
910,0.0
913,0.0
916,0.0
2,3, 1, 3, 0, 4, 0.00,60.00,Tuesday        
796,0.0
841,0.0
846,0.0
851,0.0
856,0.0
861,0.0
866,0.0
871,0.0
875,0.0
898,0.0
901,0.0
904,0.0
907,0.0
910,0.0
913,0.0
916,0.0
2,3, 1, 3, 0, 5, 0.00,60.00,Tuesday        
796,0.0
841,0.0
846,0.0
851,0.0
856,0.0
861,0.0
866,0.0
871,0.0
875,0.0
898,0.0
901,0.0
904,0.0
907,0.0
910,0.0
913,0.0
916,0.0
2,3, 1, 3, 0, 6, 0.00,60.00,Tuesday        
796,0.0
841,0.0
846,0.0
851,0.0
856,0.0
861,0.0
866,0.0
871,0.0
875,0.0
898,0.0
901,0.0
904,0.0
907,0.0
910,0.0
913,0.0
916,0.0
2,3, 1, 3, 0, 7, 0.00,60.00,Tuesday        
796,0.0
841,0.0
846,0.0
851,0.0
856,0.0
861,0.0
866,0.0
871,0.0
875,0.0
898,0.0
901,0.0
904,0.0
907,0.0
910,0.0
913,0.0
916,0.0
2,3, 1, 3, 0, 8, 0.00,60.00,Tuesday        
796,3728.50693067932
841,858.662272341779
846,2173.04247160399
851,1160.95081494825
856,683.511768554824
861,1949.89302405181
866,3115.45583099017
871,1587.38222367372
875,0.0
898,0.0
901,0.0
904,0.0
907,0.0
910,0.0
913,0.0
916,0.0
2,3, 1, 3, 0, 9, 0.00,60.00,Tuesday        
796,2965.47247917136
841,540.056982130321
846,1495.91996920651
851,780.693298916054
856,385.374169795158
861,1568.11375538612
866,2484.36762621048
871,1276.79395714235
875,0.0
898,0.0
901,0.0
904,0.0
907,0.0
910,0.0
913,0.0
916,0.0
2,3, 1, 3, 0,10, 0.00,60.00,Tuesday        
796,2432.99088532159
841,351.374631828344
846,946.586552358922
851,561.670556631618
856,143.478220394969
861,1315.29683675509
866,2067.82698436198
871,1065.46615390281
875,0.0
898,0.0
901,0.0
904,0.0
907,0.0
910,0.0
913,0.0
916,0.0
2,3, 1, 3, 0,11, 0.00,60.00,Tuesday        
796,2172.40710496542
841,297.11723906206
846,609.327834722336
851,492.8747129253
856,5.82736227246796
861,1202.09913464749
866,1905.28888102908
871,982.236222157563
875,0.0
898,0.0
901,0.0
904,0.0
907,0.0
910,0.0
913,0.0
916,0.0
2,3, 1, 3, 0,12, 0.00,60.00,Tuesday        
796,1807.61416255307
841,259.533561135896
846,278.247489520184
851,427.767472886855
856,0.0
861,1027.65912885832
866,1630.22587373446
871,842.981259049719
875,0.0
898,0.0
901,0.0
904,0.0
907,0.0
910,0.0
913,0.0
916,0.0
2,3, 1, 3, 0,13, 0.00,60.00,Tuesday        
796,1487.8708817016
841,220.233912950217
846,1.6696391462163
851,364.07987105435
856,0.0
861,860.334892151225
866,1371.0838921748
871,711.872689404476
875,0.0
898,0.0
901,0.0
904,0.0
907,0.0
910,0.0
913,0.0
916,0.0
2,3, 1, 3, 0,14, 0.00,60.00,Tuesday        
796,1301.81522043024
841,188.111268335583
846,0.0
851,318.625879497858
856,0.0
861,730.748190659904
866,1225.94966185914
871,638.017860934275
875,0.0
898,0.0
901,0.0
904,0.0
907,0.0
910,0.0
913,0.0
916,0.0
2,3, 1, 3, 0,15, 0.00,60.00,Tuesday        
796,1189.73835493946
841,172.374954953764
846,0.0
851,293.784122644544
856,0.0
861,631.037417703731
866,1128.99920433446
871,588.617314821787
875,0.0
898,0.0
901,0.0
904,0.0
907,0.0
910,0.0
913,0.0
916,0.0
2,3, 1, 3, 0,16, 0.00,60.00,Tuesday        
796,1290.12795364117
841,211.096076386926
846,20.7343596218838
851,340.143070365357
856,0.0
861,652.170612186083
866,1212.50776798113
871,629.615273655534
875,0.0
898,0.0
901,0.0
904,0.0
907,0.0
910,0.0
913,0.0
916,0.0
2,3, 1, 3, 0,17, 0.00,60.00,Tuesday        
796,1381.14516764605
841,251.0774714396
846,181.918033261722
851,381.742345101741
856,0.0
861,705.898077664549
866,1238.92600453104
871,642.086848526503
875,0.0
898,0.0
901,0.0
904,0.0
907,0.0
910,0.0
913,0.0
916,0.0
2,3, 1, 3, 0,18, 0.00,60.00,Tuesday        
796,1430.05778166591
841,276.492433302523
846,344.318804909146
851,408.542911369675
856,5.408641986314207E-003
861,729.50577099501
866,1257.06818365286
871,650.337300218489
875,0.0
898,0.0
901,0.0
904,0.0
907,0.0
910,0.0
913,0.0
916,0.0
2,3, 1, 3, 0,19, 0.00,60.00,Tuesday        
796,2733.98206453909
841,602.015603001155
846,1409.07185478167
851,866.264441358859
856,315.274159927775
861,1480.95133093428
866,2671.3559628338
871,1356.19585139796
875,0.0
898,0.0
901,0.0
904,0.0
907,0.0
910,0.0
913,0.0
916,0.0
2,3, 1, 3, 0,20, 0.00,60.00,Tuesday        
796,2916.06860870078
841,654.689206107314
846,1606.74878613305
851,935.585122146832
856,395.842725887168
861,1575.90666545212
866,2853.4394677555
871,1446.62982271595
875,0.0
898,0.0
901,0.0
904,0.0
907,0.0
910,0.0
913,0.0
916,0.0
2,3, 1, 3, 0,21, 0.00,60.00,Tuesday        
796,3049.93912902833
841,696.712700267641
846,1765.1093547158
851,988.781629381734
856,463.804363201764
861,1645.1857803211
866,2979.31013149784
871,1508.8282869838
875,0.0
898,0.0
901,0.0
904,0.0
907,0.0
910,0.0
913,0.0
916,0.0
2,3, 1, 3, 0,22, 0.00,60.00,Tuesday        
796,0.0
841,0.0
846,0.0
851,0.0
856,0.0
861,0.0
866,0.0
871,0.0
875,0.0
898,0.0
901,0.0
904,0.0
907,0.0
910,0.0
913,0.0
916,0.0
2,3, 1, 3, 0,23, 0.00,60.00,Tuesday        
796,0.0
841,0.0
846,0.0
851,0.0
856,0.0
861,0.0
866,0.0
871,0.0
875,0.0
898,0.0
901,0.0
904,0.0
907,0.0
910,0.0
913,0.0
916,0.0
2,3, 1, 3, 0,24, 0.00,60.00,Tuesday        
796,0.0
841,0.0
846,0.0
851,0.0
856,0.0
861,0.0
866,0.0
871,0.0
875,0.0
898,0.0
901,0.0
904,0.0
907,0.0
910,0.0
913,0.0
916,0.0
2,4, 1, 4, 0, 1, 0.00,60.00,Wednesday      
796,0.0
841,0.0
846,0.0
851,0.0
856,0.0
861,0.0
866,0.0
871,0.0
875,0.0
898,0.0
901,0.0
904,0.0
907,0.0
910,0.0
913,0.0
916,0.0
2,4, 1, 4, 0, 2, 0.00,60.00,Wednesday      
796,0.0
841,0.0
846,0.0
851,0.0
856,0.0
861,0.0
866,0.0
871,0.0
875,0.0
898,0.0
901,0.0
904,0.0
907,0.0
910,0.0
913,0.0
916,0.0
2,4, 1, 4, 0, 3, 0.00,60.00,Wednesday      
796,0.0
841,0.0
846,0.0
851,0.0
856,0.0
861,0.0
866,0.0
871,0.0
875,0.0
898,0.0
901,0.0
904,0.0
907,0.0
910,0.0
913,0.0
916,0.0
2,4, 1, 4, 0, 4, 0.00,60.00,Wednesday      
796,0.0
841,0.0
846,0.0
851,0.0
856,0.0
861,0.0
866,0.0
871,0.0
875,0.0
898,0.0
901,0.0
904,0.0
907,0.0
910,0.0
913,0.0
916,0.0
2,4, 1, 4, 0, 5, 0.00,60.00,Wednesday      
796,0.0
841,0.0
846,0.0
851,0.0
856,0.0
861,0.0
866,0.0
871,0.0
875,0.0
898,0.0
901,0.0
904,0.0
907,0.0
910,0.0
913,0.0
916,0.0
2,4, 1, 4, 0, 6, 0.00,60.00,Wednesday      
796,0.0
841,0.0
846,0.0
851,0.0
856,0.0
861,0.0
866,0.0
871,0.0
875,0.0
898,0.0
901,0.0
904,0.0
907,0.0
910,0.0
913,0.0
916,0.0
2,4, 1, 4, 0, 7, 0.00,60.00,Wednesday      
796,0.0
841,0.0
846,0.0
851,0.0
856,0.0
861,0.0
866,0.0
871,0.0
875,0.0
898,0.0
901,0.0
904,0.0
907,0.0
910,0.0
913,0.0
916,0.0
2,4, 1, 4, 0, 8, 0.00,60.00,Wednesday      
796,3682.30092412026
841,894.628184155497
846,2323.78723686635
851,1184.49691674919
856,775.965955127778
861,1909.65128861137
866,3017.28178116889
871,1530.40203050131
875,0.0
898,0.0
901,0.0
904,0.0
907,0.0
910,0.0
913,0.0
916,0.0
2,4, 1, 4, 0, 9, 0.00,60.00,Wednesday      
796,3317.34728129163
841,715.690532571589
846,1978.35031681879
851,986.605119153907
856,602.502774604684
861,1769.19048332834
866,2828.39831569518
871,1445.42095179767
875,0.0
898,0.0
901,0.0
904,0.0
907,0.0
910,0.0
913,0.0
916,0.0
2,4, 1, 4, 0,10, 0.00,60.00,Wednesday      
796,2850.64507267903
841,606.074107931807
846,1648.23883233451
851,844.389726056059
856,478.78191381508
861,1548.8253603614
866,2459.51687013033
871,1258.66230423178
875,0.0
898,0.0
901,0.0
904,0.0
907,0.0
910,0.0
913,0.0
916,0.0
2,4, 1, 4, 0,11, 0.00,60.00,Wednesday      
796,2569.40039732093
841,533.252044253265
846,1373.30098278241
851,755.458120164367
856,355.319940885505
861,1428.67842446304
866,2276.72417697328
871,1165.9114219986
875,0.0
898,0.0
901,0.0
904,0.0
907,0.0
910,0.0
913,0.0
916,0.0
2,4, 1, 4, 0,12, 0.00,60.00,Wednesday      
796,2291.39702871322
841,466.89245464567
846,928.463224994851
851,672.552850142924
856,139.272945076725
861,1302.58762253544
866,2089.21499348793
871,1071.02485162902
875,0.0
898,0.0
901,0.0
904,0.0
907,0.0
910,0.0
913,0.0
916,0.0
2,4, 1, 4, 0,13, 0.00,60.00,Wednesday      
796,2056.25108926539
841,432.475206013646
846,666.163506387127
851,622.548108958398
856,35.9832804024601
861,1184.67201948952
866,1916.32597884669
871,983.538504947444
875,0.0
898,0.0
901,0.0
904,0.0
907,0.0
910,0.0
913,0.0
916,0.0
2,4, 1, 4, 0,14, 0.00,60.00,Wednesday      
796,1917.39916166794
841,403.925494533558
846,428.393855430166
851,585.709024759022
856,0.0
861,1085.25858612933
866,1819.10449200561
871,934.035614537363
875,0.0
898,0.0
901,0.0
904,0.0
907,0.0
910,0.0
913,0.0
916,0.0
2,4, 1, 4, 0,15, 0.00,60.00,Wednesday      
796,1892.83649276336
841,405.327819410864
846,552.843968161731
851,585.117603960577
856,12.1354251110756
861,1052.33313416739
866,1796.44607606229
871,922.027882404049
875,0.0
898,0.0
901,0.0
904,0.0
907,0.0
910,0.0
913,0.0
916,0.0
2,4, 1, 4, 0,16, 0.00,60.00,Wednesday      
796,1845.13713474299
841,402.811462798782
846,627.730455359943
851,575.413274570275
856,52.1088788656785
861,1000.34605470713
866,1720.73465174379
871,883.651461245171
875,0.0
898,0.0
901,0.0
904,0.0
907,0.0
910,0.0
913,0.0
916,0.0
2,4, 1, 4, 0,17, 0.00,60.00,Wednesday      
796,1875.23136404684
841,423.821285904377
846,807.696389783737
851,592.080969584521
856,156.553792332538
861,1012.66531087298
866,1681.82145949497
871,863.684437084125
875,0.0
898,0.0
901,0.0
904,0.0
907,0.0
910,0.0
913,0.0
916,0.0
2,4, 1, 4, 0,18, 0.00,60.00,Wednesday      
796,1881.63931716711
841,434.679378935747
846,947.434192481776
851,600.170049472098
856,205.875663659212
861,1008.08852794032
866,1656.14755162144
871,850.259258218647
875,0.0
898,0.0
901,0.0
904,0.0
907,0.0
910,0.0
913,0.0
916,0.0
2,4, 1, 4, 0,19, 0.00,60.00,Wednesday      
796,3149.81872499062
841,748.170365079361
846,1923.41373701734
851,1042.32192347029
856,546.147714995506
861,1740.3181915815
866,3032.33212835666
871,1537.33605728451
875,0.0
898,0.0
901,0.0
904,0.0
907,0.0
910,0.0
913,0.0
916,0.0
2,4, 1, 4, 0,20, 0.00,60.00,Wednesday      
796,3228.41599717673
841,772.785247099959
846,2019.74236336749
851,1073.57756690626
856,594.153376453017
861,1778.75547308739
866,3105.12825921962
871,1573.3947272136
875,0.0
898,0.0
901,0.0
904,0.0
907,0.0
910,0.0
913,0.0
916,0.0
2,4, 1, 4, 0,21, 0.00,60.00,Wednesday      
796,3297.68398236395
841,795.439647496869
846,2109.71826031524
851,1101.50711721329
856,637.231733420958
861,1812.44937906523
866,3165.14552034344
871,1602.89566140023
875,0.0
898,0.0
901,0.0
904,0.0
907,0.0
910,0.0
913,0.0
916,0.0
2,4, 1, 4, 0,22, 0.00,60.00,Wednesday      
796,0.0
841,0.0
846,0.0
851,0.0
856,0.0
861,0.0
866,0.0
871,0.0
875,0.0
898,0.0
901,0.0
904,0.0
907,0.0
910,0.0
913,0.0
916,0.0
2,4, 1, 4, 0,23, 0.00,60.00,Wednesday      
796,0.0
841,0.0
846,0.0
851,0.0
856,0.0
861,0.0
866,0.0
871,0.0
875,0.0
898,0.0
901,0.0
904,0.0
907,0.0
910,0.0
913,0.0
916,0.0
2,4, 1, 4, 0,24, 0.00,60.00,Wednesday      
796,0.0
841,0.0
846,0.0
851,0.0
856,0.0
861,0.0
866,0.0
871,0.0
875,0.0
898,0.0
901,0.0
904,0.0
907,0.0
910,0.0
913,0.0
916,0.0
2,5, 1, 5, 0, 1, 0.00,60.00,Thursday       
796,0.0
841,0.0
846,0.0
851,0.0
856,0.0
861,0.0
866,0.0
871,0.0
875,0.0
898,0.0
901,0.0
904,0.0
907,0.0
910,0.0
913,0.0
916,0.0
2,5, 1, 5, 0, 2, 0.00,60.00,Thursday       
796,0.0
841,0.0
846,0.0
851,0.0
856,0.0
861,0.0
866,0.0
871,0.0
875,0.0
898,0.0
901,0.0
904,0.0
907,0.0
910,0.0
913,0.0
916,0.0
2,5, 1, 5, 0, 3, 0.00,60.00,Thursday       
796,0.0
841,0.0
846,0.0
851,0.0
856,0.0
861,0.0
866,0.0
871,0.0
875,0.0
898,0.0
901,0.0
904,0.0
907,0.0
910,0.0
913,0.0
916,0.0
2,5, 1, 5, 0, 4, 0.00,60.00,Thursday       
796,0.0
841,0.0
846,0.0
851,0.0
856,0.0
861,0.0
866,0.0
871,0.0
875,0.0
898,0.0
901,0.0
904,0.0
907,0.0
910,0.0
913,0.0
916,0.0
2,5, 1, 5, 0, 5, 0.00,60.00,Thursday       
796,0.0
841,0.0
846,0.0
851,0.0
856,0.0
861,0.0
866,0.0
871,0.0
875,0.0
898,0.0
901,0.0
904,0.0
907,0.0
910,0.0
913,0.0
916,0.0
2,5, 1, 5, 0, 6, 0.00,60.00,Thursday       
796,0.0
841,0.0
846,0.0
851,0.0
856,0.0
861,0.0
866,0.0
871,0.0
875,0.0
898,0.0
901,0.0
904,0.0
907,0.0
910,0.0
913,0.0
916,0.0
2,5, 1, 5, 0, 7, 0.00,60.00,Thursday       
796,0.0
841,0.0
846,0.0
851,0.0
856,0.0
861,0.0
866,0.0
871,0.0
875,0.0
898,0.0
901,0.0
904,0.0
907,0.0
910,0.0
913,0.0
916,0.0
2,5, 1, 5, 0, 8, 0.00,60.00,Thursday       
796,3866.92152723035
841,984.391209572621
846,2579.36111360564
851,1264.41613112954
856,906.631161286438
861,2056.09239563994
866,3131.47159962649
871,1589.65046579893
875,0.0
898,0.0
901,0.0
904,0.0
907,0.0
910,0.0
913,0.0
916,0.0
2,5, 1, 5, 0, 9, 0.00,60.00,Thursday       
796,3566.78401898921
841,768.58651289664
846,2184.88261666557
851,1052.39167390216
856,693.840761002014
861,1938.77245505863
866,3001.88767408973
871,1535.6408156667
875,0.0
898,0.0
901,0.0
904,0.0
907,0.0
910,0.0
913,0.0
916,0.0
2,5, 1, 5, 0,10, 0.00,60.00,Thursday       
796,3155.00916664816
841,635.166974700791
846,1793.75383305508
851,897.596589552253
856,517.239677374504
861,1747.62310071543
866,2710.09135665375
871,1387.09938339954
875,0.0
898,0.0
901,0.0
904,0.0
907,0.0
910,0.0
913,0.0
916,0.0
2,5, 1, 5, 0,11, 0.00,60.00,Thursday       
796,2812.63687009089
841,520.162620969488
846,1254.95702106826
851,763.07415772628
856,249.867535458431
861,1587.2364500768
866,2468.02955361265
871,1264.44511249206
875,0.0
898,0.0
901,0.0
904,0.0
907,0.0
910,0.0
913,0.0
916,0.0
2,5, 1, 5, 0,12, 0.00,60.00,Thursday       
796,2535.06742641414
841,488.7089406157
846,792.252375856159
851,711.907815594444
856,44.597165935093
861,1452.37151278627
866,2261.75237177936
871,1159.90169232373
875,0.0
898,0.0
901,0.0
904,0.0
907,0.0
910,0.0
913,0.0
916,0.0
2,5, 1, 5, 0,13, 0.00,60.00,Thursday       
796,2340.80717221258
841,483.153811714468
846,416.730325575017
851,691.860935069382
856,0.0
861,1341.86155116978
866,2108.60313035426
871,1082.04458267853
875,0.0
898,0.0
901,0.0
904,0.0
907,0.0
910,0.0
913,0.0
916,0.0
2,5, 1, 5, 0,14, 0.00,60.00,Thursday       
796,2117.56189272897
841,438.38907630457
846,141.43828765447
851,630.702554425849
856,0.0
861,1179.973012481
866,1925.71221636323
871,989.563549312822
875,0.0
898,0.0
901,0.0
904,0.0
907,0.0
910,0.0
913,0.0
916,0.0
2,5, 1, 5, 0,15, 0.00,60.00,Thursday       
796,1941.70064004413
841,401.18991762802
846,26.0292783752856
851,579.84189388552
856,0.0
861,1022.20163809973
866,1770.39723948732
871,911.17614232044
875,0.0
898,0.0
901,0.0
904,0.0
907,0.0
910,0.0
913,0.0
916,0.0
2,5, 1, 5, 0,16, 0.00,60.00,Thursday       
796,1947.98305189072
841,412.742123485335
846,177.225892376609
851,590.198568463929
856,0.0
861,966.148808897272
866,1757.89263673221
871,904.36764240642
875,0.0
898,0.0
901,0.0
904,0.0
907,0.0
910,0.0
913,0.0
916,0.0
2,5, 1, 5, 0,17, 0.00,60.00,Thursday       
796,1954.12603802205
841,428.508241135375
846,465.118035743234
851,599.373754801861
856,0.0
861,986.589966551234
866,1697.49545992626
871,873.58560562195
875,0.0
898,0.0
901,0.0
904,0.0
907,0.0
910,0.0
913,0.0
916,0.0
2,5, 1, 5, 0,18, 0.00,60.00,Thursday       
796,1984.49829714834
841,446.515116744936
846,636.817153003422
851,617.307296589893
856,36.8844551673785
861,1010.41429432669
866,1697.7737441381
871,872.963888899335
875,0.0
898,0.0
901,0.0
904,0.0
907,0.0
910,0.0
913,0.0
916,0.0
2,5, 1, 5, 0,19, 0.00,60.00,Thursday       
796,3285.79866386526
841,768.986233493835
846,1712.55750784301
851,1071.93065140484
856,414.291031926309
861,1761.31459430293
866,3110.06110230999
871,1577.84226563589
875,0.0
898,0.0
901,0.0
904,0.0
907,0.0
910,0.0
913,0.0
916,0.0
2,5, 1, 5, 0,20, 0.00,60.00,Thursday       
796,3351.79889191794
841,791.21145233256
846,1834.95017535741
851,1099.69671129792
856,471.975604668702
861,1791.3890315702
866,3172.98456958725
871,1608.71393318141
875,0.0
898,0.0
901,0.0
904,0.0
907,0.0
910,0.0
913,0.0
916,0.0
2,5, 1, 5, 0,21, 0.00,60.00,Thursday       
796,3454.41832422395
841,823.994926001101
846,1977.62331995365
851,1141.00197140243
856,535.131291074035
861,1842.72407738177
866,3266.93574766688
871,1654.85251912889
875,0.0
898,0.0
901,0.0
904,0.0
907,0.0
910,0.0
913,0.0
916,0.0
2,5, 1, 5, 0,22, 0.00,60.00,Thursday       
796,0.0
841,0.0
846,0.0
851,0.0
856,0.0
861,0.0
866,0.0
871,0.0
875,0.0
898,0.0
901,0.0
904,0.0
907,0.0
910,0.0
913,0.0
916,0.0
2,5, 1, 5, 0,23, 0.00,60.00,Thursday       
796,0.0
841,0.0
846,0.0
851,0.0
856,0.0
861,0.0
866,0.0
871,0.0
875,0.0
898,0.0
901,0.0
904,0.0
907,0.0
910,0.0
913,0.0
916,0.0
2,5, 1, 5, 0,24, 0.00,60.00,Thursday       
796,0.0
841,0.0
846,0.0
851,0.0
856,0.0
861,0.0
866,0.0
871,0.0
875,0.0
898,0.0
901,0.0
904,0.0
907,0.0
910,0.0
913,0.0
916,0.0
2,6, 1, 6, 0, 1, 0.00,60.00,Friday         
796,0.0
841,0.0
846,0.0
851,0.0
856,0.0
861,0.0
866,0.0
871,0.0
875,0.0
898,0.0
901,0.0
904,0.0
907,0.0
910,0.0
913,0.0
916,0.0
2,6, 1, 6, 0, 2, 0.00,60.00,Friday         
796,0.0
841,0.0
846,0.0
851,0.0
856,0.0
861,0.0
866,0.0
871,0.0
875,0.0
898,0.0
901,0.0
904,0.0
907,0.0
910,0.0
913,0.0
916,0.0
2,6, 1, 6, 0, 3, 0.00,60.00,Friday         
796,0.0
841,0.0
846,0.0
851,0.0
856,0.0
861,0.0
866,0.0
871,0.0
875,0.0
898,0.0
901,0.0
904,0.0
907,0.0
910,0.0
913,0.0
916,0.0
2,6, 1, 6, 0, 4, 0.00,60.00,Friday         
796,0.0
841,0.0
846,0.0
851,0.0
856,0.0
861,0.0
866,0.0
871,0.0
875,0.0
898,0.0
901,0.0
904,0.0
907,0.0
910,0.0
913,0.0
916,0.0
2,6, 1, 6, 0, 5, 0.00,60.00,Friday         
796,0.0
841,0.0
846,0.0
851,0.0
856,0.0
861,0.0
866,0.0
871,0.0
875,0.0
898,0.0
901,0.0
904,0.0
907,0.0
910,0.0
913,0.0
916,0.0
2,6, 1, 6, 0, 6, 0.00,60.00,Friday         
796,0.0
841,0.0
846,0.0
851,0.0
856,0.0
861,0.0
866,0.0
871,0.0
875,0.0
898,0.0
901,0.0
904,0.0
907,0.0
910,0.0
913,0.0
916,0.0
2,6, 1, 6, 0, 7, 0.00,60.00,Friday         
796,0.0
841,0.0
846,0.0
851,0.0
856,0.0
861,0.0
866,0.0
871,0.0
875,0.0
898,0.0
901,0.0
904,0.0
907,0.0
910,0.0
913,0.0
916,0.0
2,6, 1, 6, 0, 8, 0.00,60.00,Friday         
796,3921.83847072256
841,976.944340956856
846,2414.18790496367
851,1257.46016168678
856,806.543305438568
861,2020.96461960783
866,3123.07061166482
871,1585.62943690023
875,0.0
898,0.0
901,0.0
904,0.0
907,0.0
910,0.0
913,0.0
916,0.0
2,6, 1, 6, 0, 9, 0.00,60.00,Friday         
796,3775.18674150401
841,752.215252618274
846,2087.55023785095
851,1054.22703893836
856,602.98030934967
861,2002.29962581363
866,3172.22340323106
871,1620.28243656675
875,0.0
898,0.0
901,0.0
904,0.0
907,0.0
910,0.0
913,0.0
916,0.0
2,6, 1, 6, 0,10, 0.00,60.00,Friday         
796,3318.48880738939
841,588.912356915826
846,1626.50656919423
851,869.325528599826