Program Version,EnergyPlus-Linux-64 8.1.0.009, YMD=2015.05.11 15:54
1,5,Environment Title[],Latitude[deg],Longitude[deg],Time Zone[],Elevation[m]
2,6,Day of Simulation[],Month[],Day of Month[],DST Indicator[1=yes 0=no],Hour[],StartMinute[],EndMinute[],DayType
3,3,Cumulative Day of Simulation[],Month[],Day of Month[],DST Indicator[1=yes 0=no],DayType  ! When Daily Meters Requested
4,2,Cumulative Days of Simulation[],Month[]  ! When Monthly Meters Requested
5,1,Cumulative Days of Simulation[] ! When Run Period Meters Requested
20,9,Electricity:Facility [J] !Monthly  [Value,Min,Day,Hour,Minute,Max,Day,Hour,Minute]
30,9,Electricity:Building [J] !Monthly  [Value,Min,Day,Hour,Minute,Max,Day,Hour,Minute]
50,9,InteriorLights:Electricity [J] !Monthly  [Value,Min,Day,Hour,Minute,Max,Day,Hour,Minute]
741,9,Electricity:HVAC [J] !Monthly  [Value,Min,Day,Hour,Minute,Max,Day,Hour,Minute]
811,9,Gas:HVAC [J] !Monthly  [Value,Min,Day,Hour,Minute,Max,Day,Hour,Minute]
801,9,Gas:Facility [J] !Monthly  [Value,Min,Day,Hour,Minute,Max,Day,Hour,Minute]
21,11,Electricity:Facility [J] !RunPeriod [Value,Min,Month,Day,Hour,Minute,Max,Month,Day,Hour,Minute]
31,11,Electricity:Building [J] !RunPeriod [Value,Min,Month,Day,Hour,Minute,Max,Month,Day,Hour,Minute]
51,11,InteriorLights:Electricity [J] !RunPeriod [Value,Min,Month,Day,Hour,Minute,Max,Month,Day,Hour,Minute]
742,11,Electricity:HVAC [J] !RunPeriod [Value,Min,Month,Day,Hour,Minute,Max,Month,Day,Hour,Minute]
812,11,Gas:HVAC [J] !RunPeriod [Value,Min,Month,Day,Hour,Minute,Max,Month,Day,Hour,Minute]
802,11,Gas:Facility [J] !RunPeriod [Value,Min,Month,Day,Hour,Minute,Max,Month,Day,Hour,Minute]
End of Data Dictionary
1,San Francisco Intl Ap CA USA TMY3 WMO#=724940,  37.62,-122.40,  -8.00,   2.00
4,31, 1
20,11645891002.4098,1384805.21070371, 1, 1,15,7456555.95545611, 2, 9,15
30,10989815869.3032,1384805.21070371, 1, 1,15,6924027.43832402, 1, 9,15
50,7212066619.15517,692402.536111579, 1, 1,15,4846819.20682682, 1, 9,15
741,656075133.106727,0.0, 1, 1,15,532528.517132086, 2, 8,15
801,17006326939.7328,0.0, 1, 1,15,23312741.8431121, 2, 8,45
811,17006326939.7328,0.0, 1, 1,15,23312741.8431121, 2, 8,45
4,59, 2
20,10522717240.494,1384805.21070371, 1, 1,15,7456555.95545611, 1, 9,15
30,9926285301.30625,1384805.21070371, 1, 1,15,6924027.43832402, 1, 9,15
50,6514124688.26912,692402.536111579, 1, 1,15,4846819.20682682, 1, 9,15
741,596431939.187938,0.0, 1, 1,15,532528.517132086,15, 8,15
801,11978165799.673,0.0, 1, 1,15,21634048.500871, 6, 8,45
811,11978165799.673,0.0, 1, 1,15,21634048.500871, 6, 8,45
4,90, 3
20,11677270049.0043,1384805.21070371, 1, 1,15,7582264.14601992,13,17,30
30,10989815869.3032,1384805.21070371, 1, 1,15,6924027.43832402, 1, 9,15
50,7212066619.15517,692402.536111579, 1, 1,15,4846819.20682682, 1, 9,15
741,687454179.7012,0.0, 1, 1,15,658236.707695893,13,17,30
801,9933853544.46962,0.0, 1, 1,15,18836157.8494578,23, 8,45
811,9933853544.46962,0.0, 1, 1,15,18836157.8494578,23, 8,45
4,120, 4
20,11233778465.2892,1384805.21070371, 1, 1,15,7586824.78325018,26,18,15
30,10635305679.9709,1384805.21070371, 1, 1,15,6924027.43832402, 1, 9,15
50,6979419308.85982,692402.536111579, 1, 1,15,4846819.20682682, 1, 9,15
741,598472785.318437,0.0, 1, 1,15,662797.344926161,26,18,15
801,6072632484.35357,0.0, 1, 1,15,16725669.7800631,17, 8,45
811,6072632484.35357,0.0, 1, 1,15,16725669.7800631,17, 8,45
4,151, 5
20,11739642357.8866,1384805.21070371, 1, 1,15,8195259.0282572,25,16,60
30,10989815869.3032,1384805.21070371, 1, 1,15,6924027.43832402, 1, 9,15
50,7212066619.15517,692402.536111579, 1, 1,15,4846819.20682682, 1, 9,15
741,749826488.583447,0.0, 1, 1,15,1271231.58993317,25,16,60
801,4567038847.76125,0.0, 1, 1,15,13845904.1384833,16, 8,45
811,4567038847.76125,0.0, 1, 1,15,13845904.1384833,16, 8,45
4,181, 6
20,11452401422.7165,1384805.21070371, 1, 1,15,9407531.0155377,30,14,60
30,10635305679.9709,1384805.21070371, 1, 1,15,6924027.43832402, 1, 9,15
50,6979419308.85982,692402.536111579, 1, 1,15,4846819.20682682, 1, 9,15
741,817095742.745696,0.0, 1, 1,15,2483503.57721367,30,14,60
801,3728316568.49944,0.0, 1, 1,15,13591423.8435234,16,21,60
811,3728316568.49944,0.0, 1, 1,15,13591423.8435234,16,21,60
4,212, 7
20,11673815184.6528,1384805.21070371, 1, 1,15,8039655.77307936,14,16,60
30,10989815869.3032,1384805.21070371, 1, 1,15,6924027.43832402, 1, 9,15
50,7212066619.15517,692402.536111579, 1, 1,15,4846819.20682682, 1, 9,15
741,683999315.349612,0.0, 1, 1,15,1115628.33475533,14,16,60
801,2629443901.94974,0.0, 1, 1,15,11337324.4775806,19, 8,45
811,2629443901.94974,0.0, 1, 1,15,11337324.4775806,19, 8,45
4,243, 8
20,11873167157.591,1384805.21070371, 1, 1,15,8902449.41177631, 3,15,60
30,10989815869.3032,1384805.21070371, 1, 1,15,6924027.43832402, 1, 9,15
50,7212066619.15517,692402.536111579, 1, 1,15,4846819.20682682, 1, 9,15
741,883351288.287766,0.0, 1, 1,15,1978421.97345229, 3,15,60
801,2323566784.37518,0.0, 1, 1,15,10720016.4401492,30, 8,15
811,2323566784.37518,0.0, 1, 1,15,10720016.4401492,30, 8,15
4,273, 9
20,11336488034.6848,1384805.21070371, 1, 1,15,8808040.4791123,15,15,60
30,10635305679.9709,1384805.21070371, 1, 1,15,6924027.43832402, 1, 9,15
50,6979419308.85982,692402.536111579, 1, 1,15,4846819.20682682, 1, 9,15
741,701182354.714002,0.0, 1, 1,15,1884013.04078828,15,15,60
801,2415331352.67985,0.0, 1, 1,15,10496362.7301409,27, 8,15
811,2415331352.67985,0.0, 1, 1,15,10496362.7301409,27, 8,15
4,304,10
20,11666662944.3095,1384805.21070371, 1, 1,15,8058768.95046906, 6,16,60
30,10989815869.3032,1384805.21070371, 1, 1,15,6924027.43832402, 1, 9,15
50,7212066619.15517,692402.536111579, 1, 1,15,4846819.20682682, 1, 9,15
741,676847075.006284,0.0, 1, 1,15,1134741.51214504, 6,16,60
801,5065686575.30311,0.0, 1, 1,15,15995458.04039,23, 8,45
811,5065686575.30311,0.0, 1, 1,15,15995458.04039,23, 8,45
4,334,11
20,11291380813.0775,1384805.21070371, 1, 1,15,7456555.95545611, 1, 9,15
30,10635305679.9709,1384805.21070371, 1, 1,15,6924027.43832402, 1, 9,15
50,6979419308.85982,692402.536111579, 1, 1,15,4846819.20682682, 1, 9,15
741,656075133.106727,0.0, 1, 1,15,532528.517132086, 1, 8,15
801,9635130262.32825,0.0, 1, 1,15,18423284.0007166,30, 8,45
811,9635130262.32825,0.0, 1, 1,15,18423284.0007166,30, 8,45
4,365,12
20,11616069405.4504,1384805.21070371, 1, 1,15,7456555.95545611, 1, 9,15
30,10989815869.3032,1384805.21070371, 1, 1,15,6924027.43832402, 1, 9,15
50,7212066619.15517,692402.536111579, 1, 1,15,4846819.20682682, 1, 9,15
741,626253536.147332,0.0, 1, 1,15,532528.517132086, 5, 8,15
801,13879939134.278,0.0, 1, 1,15,21636491.9721947,18, 8,45
811,13879939134.278,0.0, 1, 1,15,21636491.9721947,18, 8,45
5,365
21,137729284077.606,1384805.21070371, 1, 1, 1,15,9407531.0155377, 6,30,14,60
31,129396219106.348,1384805.21070371, 1, 1, 1,15,6924027.43832402, 1, 1, 9,15
51,84916268257.7994,692402.536111579, 1, 1, 1,15,4846819.20682682, 1, 1, 9,15
742,8333064971.25409,0.0, 1, 1, 1,15,2483503.57721367, 6,30,14,60
802,89235432195.404,0.0, 1, 1, 1,15,23312741.8431121, 1, 2, 8,45
812,89235432195.404,0.0, 1, 1, 1,15,23312741.8431121, 1, 2, 8,45
End of Data
 Number of Records Written=          78
