Program Version,EnergyPlus-Linux-64 8.1.0.009, YMD=2015.05.11 16:22
1,5,Environment Title[],Latitude[deg],Longitude[deg],Time Zone[],Elevation[m]
2,6,Day of Simulation[],Month[],Day of Month[],DST Indicator[1=yes 0=no],Hour[],StartMinute[],EndMinute[],DayType
3,3,Cumulative Day of Simulation[],Month[],Day of Month[],DST Indicator[1=yes 0=no],DayType  ! When Daily Meters Requested
4,2,Cumulative Days of Simulation[],Month[]  ! When Monthly Meters Requested
5,1,Cumulative Days of Simulation[] ! When Run Period Meters Requested
20,9,Electricity:Facility [J] !Monthly  [Value,Min,Day,Hour,Minute,Max,Day,Hour,Minute]
30,9,Electricity:Building [J] !Monthly  [Value,Min,Day,Hour,Minute,Max,Day,Hour,Minute]
50,9,InteriorLights:Electricity [J] !Monthly  [Value,Min,Day,Hour,Minute,Max,Day,Hour,Minute]
741,9,Electricity:HVAC [J] !Monthly  [Value,Min,Day,Hour,Minute,Max,Day,Hour,Minute]
811,9,Gas:HVAC [J] !Monthly  [Value,Min,Day,Hour,Minute,Max,Day,Hour,Minute]
801,9,Gas:Facility [J] !Monthly  [Value,Min,Day,Hour,Minute,Max,Day,Hour,Minute]
21,11,Electricity:Facility [J] !RunPeriod [Value,Min,Month,Day,Hour,Minute,Max,Month,Day,Hour,Minute]
31,11,Electricity:Building [J] !RunPeriod [Value,Min,Month,Day,Hour,Minute,Max,Month,Day,Hour,Minute]
51,11,InteriorLights:Electricity [J] !RunPeriod [Value,Min,Month,Day,Hour,Minute,Max,Month,Day,Hour,Minute]
742,11,Electricity:HVAC [J] !RunPeriod [Value,Min,Month,Day,Hour,Minute,Max,Month,Day,Hour,Minute]
812,11,Gas:HVAC [J] !RunPeriod [Value,Min,Month,Day,Hour,Minute,Max,Month,Day,Hour,Minute]
802,11,Gas:Facility [J] !RunPeriod [Value,Min,Month,Day,Hour,Minute,Max,Month,Day,Hour,Minute]
End of Data Dictionary
1,San Francisco Intl Ap CA USA TMY3 WMO#=724940,  37.62,-122.40,  -8.00,   2.00
4,31, 1
20,11619777293.9799,1384805.21070371, 1, 1,15,7435359.76354869, 2, 9,15
30,10989815869.3032,1384805.21070371, 1, 1,15,6924027.43832402, 1, 9,15
50,7212066619.15517,692402.536111579, 1, 1,15,4846819.20682682, 1, 9,15
741,629961424.676767,0.0, 1, 1,15,511332.32522466, 2, 8,30
801,16402941614.1692,0.0, 1, 1,15,22753395.0260982, 2, 8,45
811,16402941614.1692,0.0, 1, 1,15,22753395.0260982, 2, 8,45
4,59, 2
20,10506969588.0485,1384805.21070371, 1, 1,15,7739811.65979619,15,16,30
30,9926285301.30625,1384805.21070371, 1, 1,15,6924027.43832402, 1, 9,15
50,6514124688.26912,692402.536111579, 1, 1,15,4846819.20682682, 1, 9,15
741,580684286.742278,0.0, 1, 1,15,815784.221472165,15,16,30
801,11622550939.773,0.0, 1, 1,15,21468518.9266075, 6, 8,45
811,11622550939.773,0.0, 1, 1,15,21468518.9266075, 6, 8,45
4,90, 3
20,11662036095.3791,1384805.21070371, 1, 1,15,7795011.43272442,13,15,60
30,10989815869.3032,1384805.21070371, 1, 1,15,6924027.43832402, 1, 9,15
50,7212066619.15517,692402.536111579, 1, 1,15,4846819.20682682, 1, 9,15
741,672220226.075876,0.0, 1, 1,15,870983.994400399,13,15,60
801,10022983509.9636,0.0, 1, 1,15,18821675.5418534,23, 8,45
811,10022983509.9636,0.0, 1, 1,15,18821675.5418534,23, 8,45
4,120, 4
20,11210763366.8124,1384805.21070371, 1, 1,15,7632810.97423785,26,14,60
30,10635305679.9709,1384805.21070371, 1, 1,15,6924027.43832402, 1, 9,15
50,6979419308.85982,692402.536111579, 1, 1,15,4846819.20682682, 1, 9,15
741,575457686.841504,0.0, 1, 1,15,708783.535913829,26,14,60
801,6380494356.90714,0.0, 1, 1,15,16964930.035498,17, 8,45
811,6380494356.90714,0.0, 1, 1,15,16964930.035498,17, 8,45
4,151, 5
20,11690975482.5976,1384805.21070371, 1, 1,15,7957369.52308907,11,15,60
30,10989815869.3032,1384805.21070371, 1, 1,15,6924027.43832402, 1, 9,15
50,7212066619.15517,692402.536111579, 1, 1,15,4846819.20682682, 1, 9,15
741,701159613.294379,0.0, 1, 1,15,1033342.08476504,11,15,60
801,4927020413.82786,0.0, 1, 1,15,13924102.3231063,16, 8,45
811,4927020413.82786,0.0, 1, 1,15,13924102.3231063,16, 8,45
4,181, 6
20,11375637412.8682,1384805.21070371, 1, 1,15,9234038.71760947,30,14,60
30,10635305679.9709,1384805.21070371, 1, 1,15,6924027.43832402, 1, 9,15
50,6979419308.85982,692402.536111579, 1, 1,15,4846819.20682682, 1, 9,15
741,740331732.89727,0.0, 1, 1,15,2310011.27928544,30,14,60
801,4049405132.75564,0.0, 1, 1,15,13719638.1155069,16,21,60
811,4049405132.75564,0.0, 1, 1,15,13719638.1155069,16,21,60
4,212, 7
20,11622191491.1771,1384805.21070371, 1, 1,15,7856271.51894733,12,13,60
30,10989815869.3032,1384805.21070371, 1, 1,15,6924027.43832402, 1, 9,15
50,7212066619.15517,692402.536111579, 1, 1,15,4846819.20682682, 1, 9,15
741,632375621.873884,0.0, 1, 1,15,932244.080623303,12,13,60
801,2941784056.26254,0.0, 1, 1,15,11653412.3144042,19, 8,45
811,2941784056.26254,0.0, 1, 1,15,11653412.3144042,19, 8,45
4,243, 8
20,11819000150.6182,1384805.21070371, 1, 1,15,8773140.93950869, 9,15,45
30,10989815869.3032,1384805.21070371, 1, 1,15,6924027.43832402, 1, 9,15
50,7212066619.15517,692402.536111579, 1, 1,15,4846819.20682682, 1, 9,15
741,829184281.314933,0.0, 1, 1,15,1849113.50118467, 9,15,45
801,2528016041.14799,0.0, 1, 1,15,10935372.7798044,16, 8,45
811,2528016041.14799,0.0, 1, 1,15,10935372.7798044,16, 8,45
4,273, 9
20,11382520283.9872,1384805.21070371, 1, 1,15,8722628.64057455,15,15,60
30,10635305679.9709,1384805.21070371, 1, 1,15,6924027.43832402, 1, 9,15
50,6979419308.85982,692402.536111579, 1, 1,15,4846819.20682682, 1, 9,15
741,747214604.016306,0.0, 1, 1,15,1798601.20225052,15,15,60
801,2513866161.45892,0.0, 1, 1,15,10441587.1181204,27, 8,15
811,2513866161.45892,0.0, 1, 1,15,10441587.1181204,27, 8,15
4,304,10
20,11694064626.8106,1384805.21070371, 1, 1,15,8052426.91052923, 6,16,60
30,10989815869.3032,1384805.21070371, 1, 1,15,6924027.43832402, 1, 9,15
50,7212066619.15517,692402.536111579, 1, 1,15,4846819.20682682, 1, 9,15
741,704248757.507446,0.0, 1, 1,15,1128399.47220521, 6,16,60
801,5084493763.31584,0.0, 1, 1,15,16245171.6023886,23, 8,45
811,5084493763.31584,0.0, 1, 1,15,16245171.6023886,23, 8,45
4,334,11
20,11274370112.4369,1384805.21070371, 1, 1,15,7741117.09985827, 2,16,15
30,10635305679.9709,1384805.21070371, 1, 1,15,6924027.43832402, 1, 9,15
50,6979419308.85982,692402.536111579, 1, 1,15,4846819.20682682, 1, 9,15
741,639064432.466045,0.0, 1, 1,15,817089.661534249, 2,16,15
801,9289393720.47446,0.0, 1, 1,15,18119311.0669831,30, 8,45
811,9289393720.47446,0.0, 1, 1,15,18119311.0669831,30, 8,45
4,365,12
20,11591394145.1768,1384805.21070371, 1, 1,15,7465480.09299909, 1,15,60
30,10989815869.3032,1384805.21070371, 1, 1,15,6924027.43832402, 1, 9,15
50,7212066619.15517,692402.536111579, 1, 1,15,4846819.20682682, 1, 9,15
741,601578275.87363,0.0, 1, 1,15,541452.654675069, 1,15,60
801,13220429204.5444,0.0, 1, 1,15,21707595.8616012,18, 8,45
811,13220429204.5444,0.0, 1, 1,15,21707595.8616012,18, 8,45
5,365
21,137449700049.942,1384805.21070371, 1, 1, 1,15,9234038.71760947, 6,30,14,60
31,129396219106.348,1384805.21070371, 1, 1, 1,15,6924027.43832402, 1, 1, 9,15
51,84916268257.7994,692402.536111579, 1, 1, 1,15,4846819.20682682, 1, 1, 9,15
742,8053480943.58212,0.0, 1, 1, 1,15,2310011.27928544, 6,30,14,60
802,88983378914.6007,0.0, 1, 1, 1,15,22753395.0260982, 1, 2, 8,45
812,88983378914.6007,0.0, 1, 1, 1,15,22753395.0260982, 1, 2, 8,45
End of Data
 Number of Records Written=          78
