Program Version,EnergyPlus-Linux-64 8.1.0.009, YMD=2015.05.11 15:54
1,5,Environment Title[],Latitude[deg],Longitude[deg],Time Zone[],Elevation[m]
2,6,Day of Simulation[],Month[],Day of Month[],DST Indicator[1=yes 0=no],Hour[],StartMinute[],EndMinute[],DayType
3,3,Cumulative Day of Simulation[],Month[],Day of Month[],DST Indicator[1=yes 0=no],DayType  ! When Daily Report Variables Requested
4,2,Cumulative Days of Simulation[],Month[]  ! When Monthly Report Variables Requested
5,1,Cumulative Days of Simulation[] ! When Run Period Report Variables Requested
796,1,FURNACE_DX_A_B_G_L HEATING COIL,Heating Coil Air Heating Rate [W] !Hourly
841,1,FURNACE_DX_B_C_H_G HEATING COIL,Heating Coil Air Heating Rate [W] !Hourly
846,1,FURNACE_DX_C_D_I_H HEATING COIL,Heating Coil Air Heating Rate [W] !Hourly
851,1,FURNACE_DX_D_E_J_I HEATING COIL,Heating Coil Air Heating Rate [W] !Hourly
856,1,FURNACE_DX_E_F_K_J HEATING COIL,Heating Coil Air Heating Rate [W] !Hourly
861,1,FURNACE_DX_L_K_F_A HEATING COIL,Heating Coil Air Heating Rate [W] !Hourly
866,1,FURNACE_DX_G_H_I_L HEATING COIL,Heating Coil Air Heating Rate [W] !Hourly
871,1,FURNACE_DX_I_J_K_L HEATING COIL,Heating Coil Air Heating Rate [W] !Hourly
875,1,FURNACE_DX_A_B_G_L COOLING COIL,Cooling Coil Total Cooling Rate [W] !Hourly
898,1,FURNACE_DX_B_C_H_G COOLING COIL,Cooling Coil Total Cooling Rate [W] !Hourly
901,1,FURNACE_DX_C_D_I_H COOLING COIL,Cooling Coil Total Cooling Rate [W] !Hourly
904,1,FURNACE_DX_D_E_J_I COOLING COIL,Cooling Coil Total Cooling Rate [W] !Hourly
907,1,FURNACE_DX_E_F_K_J COOLING COIL,Cooling Coil Total Cooling Rate [W] !Hourly
910,1,FURNACE_DX_L_K_F_A COOLING COIL,Cooling Coil Total Cooling Rate [W] !Hourly
913,1,FURNACE_DX_G_H_I_L COOLING COIL,Cooling Coil Total Cooling Rate [W] !Hourly
916,1,FURNACE_DX_I_J_K_L COOLING COIL,Cooling Coil Total Cooling Rate [W] !Hourly
End of Data Dictionary
1,San Francisco Intl Ap CA USA TMY3 WMO#=724940,  37.62,-122.40,  -8.00,   2.00
2,1, 1, 1, 0, 1, 0.00,60.00,Sunday         
796,0.0
841,0.0
846,0.0
851,0.0
856,0.0
861,0.0
866,0.0
871,0.0
875,0.0
898,0.0
901,0.0
904,0.0
907,0.0
910,0.0
913,0.0
916,0.0
2,1, 1, 1, 0, 2, 0.00,60.00,Sunday         
796,0.0
841,0.0
846,0.0
851,0.0
856,0.0
861,0.0
866,0.0
871,0.0
875,0.0
898,0.0
901,0.0
904,0.0
907,0.0
910,0.0
913,0.0
916,0.0
2,1, 1, 1, 0, 3, 0.00,60.00,Sunday         
796,0.0
841,0.0
846,0.0
851,0.0
856,0.0
861,0.0
866,0.0
871,0.0
875,0.0
898,0.0
901,0.0
904,0.0
907,0.0
910,0.0
913,0.0
916,0.0
2,1, 1, 1, 0, 4, 0.00,60.00,Sunday         
796,0.0
841,0.0
846,0.0
851,0.0
856,0.0
861,0.0
866,0.0
871,0.0
875,0.0
898,0.0
901,0.0
904,0.0
907,0.0
910,0.0
913,0.0
916,0.0
2,1, 1, 1, 0, 5, 0.00,60.00,Sunday         
796,0.0
841,0.0
846,0.0
851,0.0
856,0.0
861,0.0
866,0.0
871,0.0
875,0.0
898,0.0
901,0.0
904,0.0
907,0.0
910,0.0
913,0.0
916,0.0
2,1, 1, 1, 0, 6, 0.00,60.00,Sunday         
796,0.0
841,0.0
846,0.0
851,0.0
856,0.0
861,0.0
866,0.0
871,0.0
875,0.0
898,0.0
901,0.0
904,0.0
907,0.0
910,0.0
913,0.0
916,0.0
2,1, 1, 1, 0, 7, 0.00,60.00,Sunday         
796,0.0
841,0.0
846,0.0
851,0.0
856,0.0
861,0.0
866,0.0
871,0.0
875,0.0
898,0.0
901,0.0
904,0.0
907,0.0
910,0.0
913,0.0
916,0.0
2,1, 1, 1, 0, 8, 0.00,60.00,Sunday         
796,0.0
841,0.0
846,0.0
851,0.0
856,0.0
861,0.0
866,0.0
871,0.0
875,0.0
898,0.0
901,0.0
904,0.0
907,0.0
910,0.0
913,0.0
916,0.0
2,1, 1, 1, 0, 9, 0.00,60.00,Sunday         
796,0.0
841,0.0
846,0.0
851,0.0
856,0.0
861,0.0
866,0.0
871,0.0
875,0.0
898,0.0
901,0.0
904,0.0
907,0.0
910,0.0
913,0.0
916,0.0
2,1, 1, 1, 0,10, 0.00,60.00,Sunday         
796,0.0
841,0.0
846,0.0
851,0.0
856,0.0
861,0.0
866,0.0
871,0.0
875,0.0
898,0.0
901,0.0
904,0.0
907,0.0
910,0.0
913,0.0
916,0.0
2,1, 1, 1, 0,11, 0.00,60.00,Sunday         
796,0.0
841,0.0
846,0.0
851,0.0
856,0.0
861,0.0
866,0.0
871,0.0
875,0.0
898,0.0
901,0.0
904,0.0
907,0.0
910,0.0
913,0.0
916,0.0
2,1, 1, 1, 0,12, 0.00,60.00,Sunday         
796,0.0
841,0.0
846,0.0
851,0.0
856,0.0
861,0.0
866,0.0
871,0.0
875,0.0
898,0.0
901,0.0
904,0.0
907,0.0
910,0.0
913,0.0
916,0.0
2,1, 1, 1, 0,13, 0.00,60.00,Sunday         
796,0.0
841,0.0
846,0.0
851,0.0
856,0.0
861,0.0
866,0.0
871,0.0
875,0.0
898,0.0
901,0.0
904,0.0
907,0.0
910,0.0
913,0.0
916,0.0
2,1, 1, 1, 0,14, 0.00,60.00,Sunday         
796,0.0
841,0.0
846,0.0
851,0.0
856,0.0
861,0.0
866,0.0
871,0.0
875,0.0
898,0.0
901,0.0
904,0.0
907,0.0
910,0.0
913,0.0
916,0.0
2,1, 1, 1, 0,15, 0.00,60.00,Sunday         
796,0.0
841,0.0
846,0.0
851,0.0
856,0.0
861,0.0
866,0.0
871,0.0
875,0.0
898,0.0
901,0.0
904,0.0
907,0.0
910,0.0
913,0.0
916,0.0
2,1, 1, 1, 0,16, 0.00,60.00,Sunday         
796,0.0
841,0.0
846,0.0
851,0.0
856,0.0
861,0.0
866,0.0
871,0.0
875,0.0
898,0.0
901,0.0
904,0.0
907,0.0
910,0.0
913,0.0
916,0.0
2,1, 1, 1, 0,17, 0.00,60.00,Sunday         
796,0.0
841,0.0
846,0.0
851,0.0
856,0.0
861,0.0
866,0.0
871,0.0
875,0.0
898,0.0
901,0.0
904,0.0
907,0.0
910,0.0
913,0.0
916,0.0
2,1, 1, 1, 0,18, 0.00,60.00,Sunday         
796,0.0
841,0.0
846,0.0
851,0.0
856,0.0
861,0.0
866,0.0
871,0.0
875,0.0
898,0.0
901,0.0
904,0.0
907,0.0
910,0.0
913,0.0
916,0.0
2,1, 1, 1, 0,19, 0.00,60.00,Sunday         
796,0.0
841,0.0
846,0.0
851,0.0
856,0.0
861,0.0
866,0.0
871,0.0
875,0.0
898,0.0
901,0.0
904,0.0
907,0.0
910,0.0
913,0.0
916,0.0
2,1, 1, 1, 0,20, 0.00,60.00,Sunday         
796,0.0
841,0.0
846,0.0
851,0.0
856,0.0
861,0.0
866,0.0
871,0.0
875,0.0
898,0.0
901,0.0
904,0.0
907,0.0
910,0.0
913,0.0
916,0.0
2,1, 1, 1, 0,21, 0.00,60.00,Sunday         
796,0.0
841,0.0
846,0.0
851,0.0
856,0.0
861,0.0
866,0.0
871,0.0
875,0.0
898,0.0
901,0.0
904,0.0
907,0.0
910,0.0
913,0.0
916,0.0
2,1, 1, 1, 0,22, 0.00,60.00,Sunday         
796,0.0
841,0.0
846,0.0
851,0.0
856,0.0
861,0.0
866,0.0
871,0.0
875,0.0
898,0.0
901,0.0
904,0.0
907,0.0
910,0.0
913,0.0
916,0.0
2,1, 1, 1, 0,23, 0.00,60.00,Sunday         
796,0.0
841,0.0
846,0.0
851,0.0
856,0.0
861,0.0
866,0.0
871,0.0
875,0.0
898,0.0
901,0.0
904,0.0
907,0.0
910,0.0
913,0.0
916,0.0
2,1, 1, 1, 0,24, 0.00,60.00,Sunday         
796,0.0
841,0.0
846,0.0
851,0.0
856,0.0
861,0.0
866,0.0
871,0.0
875,0.0
898,0.0
901,0.0
904,0.0
907,0.0
910,0.0
913,0.0
916,0.0
2,2, 1, 2, 0, 1, 0.00,60.00,Monday         
796,0.0
841,0.0
846,0.0
851,0.0
856,0.0
861,0.0
866,0.0
871,0.0
875,0.0
898,0.0
901,0.0
904,0.0
907,0.0
910,0.0
913,0.0
916,0.0
2,2, 1, 2, 0, 2, 0.00,60.00,Monday         
796,0.0
841,0.0
846,0.0
851,0.0
856,0.0
861,0.0
866,0.0
871,0.0
875,0.0
898,0.0
901,0.0
904,0.0
907,0.0
910,0.0
913,0.0
916,0.0
2,2, 1, 2, 0, 3, 0.00,60.00,Monday         
796,0.0
841,0.0
846,0.0
851,0.0
856,0.0
861,0.0
866,0.0
871,0.0
875,0.0
898,0.0
901,0.0
904,0.0
907,0.0
910,0.0
913,0.0
916,0.0
2,2, 1, 2, 0, 4, 0.00,60.00,Monday         
796,0.0
841,0.0
846,0.0
851,0.0
856,0.0
861,0.0
866,0.0
871,0.0
875,0.0
898,0.0
901,0.0
904,0.0
907,0.0
910,0.0
913,0.0
916,0.0
2,2, 1, 2, 0, 5, 0.00,60.00,Monday         
796,0.0
841,0.0
846,0.0
851,0.0
856,0.0
861,0.0
866,0.0
871,0.0
875,0.0
898,0.0
901,0.0
904,0.0
907,0.0
910,0.0
913,0.0
916,0.0
2,2, 1, 2, 0, 6, 0.00,60.00,Monday         
796,0.0
841,0.0
846,0.0
851,0.0
856,0.0
861,0.0
866,0.0
871,0.0
875,0.0
898,0.0
901,0.0
904,0.0
907,0.0
910,0.0
913,0.0
916,0.0
2,2, 1, 2, 0, 7, 0.00,60.00,Monday         
796,0.0
841,0.0
846,0.0
851,0.0
856,0.0
861,0.0
866,0.0
871,0.0
875,0.0
898,0.0
901,0.0
904,0.0
907,0.0
910,0.0
913,0.0
916,0.0
2,2, 1, 2, 0, 8, 0.00,60.00,Monday         
796,4053.79340083081
841,1217.5367655809
846,3037.50644379361
851,1546.98154707939
856,1038.22436419712
861,1833.08951263366
866,3619.97383566962
871,1836.97406466022
875,0.0
898,0.0
901,0.0
904,0.0
907,0.0
910,0.0
913,0.0
916,0.0
2,2, 1, 2, 0, 9, 0.00,60.00,Monday         
796,3465.11266007162
841,1003.50258800611
846,2218.82101285461
851,1286.80154219768
856,620.142111624461
861,1528.81010422364
866,3099.07207834324
871,1584.59352655223
875,0.0
898,0.0
901,0.0
904,0.0
907,0.0
910,0.0
913,0.0
916,0.0
2,2, 1, 2, 0,10, 0.00,60.00,Monday         
796,2825.16654631328
841,811.563213267124
846,1561.38437614914
851,1045.00461043239
856,349.211291891994
861,1178.03691549338
866,2549.97893777331
871,1306.05807871338
875,0.0
898,0.0
901,0.0
904,0.0
907,0.0
910,0.0
913,0.0
916,0.0
2,2, 1, 2, 0,11, 0.00,60.00,Monday         
796,2331.19464999085
841,663.44241324703
846,1236.75697293515
851,860.577043449171
856,248.698908995624
861,911.49954675081
866,2141.99507014921
871,1099.95974762137
875,0.0
898,0.0
901,0.0
904,0.0
907,0.0
910,0.0
913,0.0
916,0.0
2,2, 1, 2, 0,12, 0.00,60.00,Monday         
796,2015.38357334942
841,567.003680895861
846,1114.16792887551
851,743.252430521723
856,232.02009691326
861,698.48410679842
866,1896.4445409734
871,975.542953583802
875,0.0
898,0.0
901,0.0
904,0.0
907,0.0
910,0.0
913,0.0
916,0.0
2,2, 1, 2, 0,13, 0.00,60.00,Monday         
796,1807.20787846065
841,509.193777307742
846,1098.8332404888
851,675.82793688826
856,250.62804100225
861,563.1683986567
866,1774.06477239117
871,912.739491051449
875,0.0
898,0.0
901,0.0
904,0.0
907,0.0
910,0.0
913,0.0
916,0.0
2,2, 1, 2, 0,14, 0.00,60.00,Monday         
796,1524.09867842671
841,460.298899838628
846,1027.14148156678
851,618.527712330066
856,233.686638032248
861,500.136425441816
866,1669.79985348085
871,858.899821319418
875,0.0
898,0.0
901,0.0
904,0.0
907,0.0
910,0.0
913,0.0
916,0.0
2,2, 1, 2, 0,15, 0.00,60.00,Monday         
796,1311.57895310437
841,461.087167978668
846,1074.10269303699
851,622.503791151124
856,260.843785691725
861,490.564570217278
866,1697.06226265082
871,870.786904194071
875,0.0
898,0.0
901,0.0
904,0.0
907,0.0
910,0.0
913,0.0
916,0.0
2,2, 1, 2, 0,16, 0.00,60.00,Monday         
796,1109.71122106051
841,451.028662903499
846,1072.87139852387
851,607.611674766604
856,273.948031771839
861,469.124060224824
866,1641.03982914056
871,841.139353068117
875,0.0
898,0.0
901,0.0
904,0.0
907,0.0
910,0.0
913,0.0
916,0.0
2,2, 1, 2, 0,17, 0.00,60.00,Monday         
796,1368.90338416593
841,480.249704587725
846,1168.63743262768
851,637.608541254673
856,329.306100497235
861,550.165181062531
866,1657.00993875436
871,847.873100684062
875,0.0
898,0.0
901,0.0
904,0.0
907,0.0
910,0.0
913,0.0
916,0.0
2,2, 1, 2, 0,18, 0.00,60.00,Monday         
796,1548.40592897108
841,498.810375482956
846,1242.06573480673
851,659.386482078534
856,367.710074135682
861,605.168870976813
866,1693.44645705103
871,865.318427543837
875,0.0
898,0.0
901,0.0
904,0.0
907,0.0
910,0.0
913,0.0
916,0.0
2,2, 1, 2, 0,19, 0.00,60.00,Monday         
796,2735.92718087924
841,776.216488468262
846,2131.90594598768
851,1054.82304846196
856,659.315259797978
861,1285.43973783026
866,2954.04630405863
871,1494.79112209535
875,0.0
898,0.0
901,0.0
904,0.0
907,0.0
910,0.0
913,0.0
916,0.0
2,2, 1, 2, 0,20, 0.00,60.00,Monday         
796,2753.60964082713
841,774.800732256555
846,2144.37679317423
851,1052.14005185557
856,670.983315770516
861,1289.72551097162
866,2939.9610445731
871,1487.75008201368
875,0.0
898,0.0
901,0.0
904,0.0
907,0.0
910,0.0
913,0.0
916,0.0
2,2, 1, 2, 0,21, 0.00,60.00,Monday         
796,2910.37700921066
841,809.959024117387
846,2265.74132293923
851,1099.53155439213
856,718.858493708418
861,1378.92699778885
866,3071.46588654302
871,1553.19158285637
875,0.0
898,0.0
901,0.0
904,0.0
907,0.0
910,0.0
913,0.0
916,0.0
2,2, 1, 2, 0,22, 0.00,60.00,Monday         
796,0.0
841,0.0
846,0.0
851,0.0
856,0.0
861,0.0
866,0.0
871,0.0
875,0.0
898,0.0
901,0.0
904,0.0
907,0.0
910,0.0
913,0.0
916,0.0
2,2, 1, 2, 0,23, 0.00,60.00,Monday         
796,0.0
841,0.0
846,0.0
851,0.0
856,0.0
861,0.0
866,0.0
871,0.0
875,0.0
898,0.0
901,0.0
904,0.0
907,0.0
910,0.0
913,0.0
916,0.0
2,2, 1, 2, 0,24, 0.00,60.00,Monday         
796,0.0
841,0.0
846,0.0
851,0.0
856,0.0
861,0.0
866,0.0
871,0.0
875,0.0
898,0.0
901,0.0
904,0.0
907,0.0
910,0.0
913,0.0
916,0.0
2,3, 1, 3, 0, 1, 0.00,60.00,Tuesday        
796,0.0
841,0.0
846,0.0
851,0.0
856,0.0
861,0.0
866,0.0
871,0.0
875,0.0
898,0.0
901,0.0
904,0.0
907,0.0
910,0.0
913,0.0
916,0.0
2,3, 1, 3, 0, 2, 0.00,60.00,Tuesday        
796,0.0
841,0.0
846,0.0
851,0.0
856,0.0
861,0.0
866,0.0
871,0.0
875,0.0
898,0.0
901,0.0
904,0.0
907,0.0
910,0.0
913,0.0
916,0.0
2,3, 1, 3, 0, 3, 0.00,60.00,Tuesday        
796,0.0
841,0.0
846,0.0
851,0.0
856,0.0
861,0.0
866,0.0
871,0.0
875,0.0
898,0.0
901,0.0
904,0.0
907,0.0
910,0.0
913,0.0
916,0.0
2,3, 1, 3, 0, 4, 0.00,60.00,Tuesday        
796,0.0
841,0.0
846,0.0
851,0.0
856,0.0
861,0.0
866,0.0
871,0.0
875,0.0
898,0.0
901,0.0
904,0.0
907,0.0
910,0.0
913,0.0
916,0.0
2,3, 1, 3, 0, 5, 0.00,60.00,Tuesday        
796,0.0
841,0.0
846,0.0
851,0.0
856,0.0
861,0.0
866,0.0
871,0.0
875,0.0
898,0.0
901,0.0
904,0.0
907,0.0
910,0.0
913,0.0
916,0.0
2,3, 1, 3, 0, 6, 0.00,60.00,Tuesday        
796,0.0
841,0.0
846,0.0
851,0.0
856,0.0
861,0.0
866,0.0
871,0.0
875,0.0
898,0.0
901,0.0
904,0.0
907,0.0
910,0.0
913,0.0
916,0.0
2,3, 1, 3, 0, 7, 0.00,60.00,Tuesday        
796,0.0
841,0.0
846,0.0
851,0.0
856,0.0
861,0.0
866,0.0
871,0.0
875,0.0
898,0.0
901,0.0
904,0.0
907,0.0
910,0.0
913,0.0
916,0.0
2,3, 1, 3, 0, 8, 0.00,60.00,Tuesday        
796,3459.64411723235
841,979.860766835567
846,2608.42385938999
851,1274.55219516774
856,869.929859714176
861,1628.33679241976
866,3149.04507801322
871,1597.36459544795
875,0.0
898,0.0
901,0.0
904,0.0
907,0.0
910,0.0
913,0.0
916,0.0
2,3, 1, 3, 0, 9, 0.00,60.00,Tuesday        
796,2752.87418775978
841,780.074467115162
846,1773.43911712788
851,1011.07901192382
856,491.26623251893
861,1252.61181350156
866,2511.25026362099
871,1284.46272813909
875,0.0
898,0.0
901,0.0
904,0.0
907,0.0
910,0.0
913,0.0
916,0.0
2,3, 1, 3, 0,10, 0.00,60.00,Tuesday        
796,2260.88873229598
841,633.723896529936
846,1254.24379501452
851,826.569743113226
856,274.115839039603
861,974.580666877632
866,2091.34491969485
871,1071.45662797644
875,0.0
898,0.0
901,0.0
904,0.0
907,0.0
910,0.0
913,0.0
916,0.0
2,3, 1, 3, 0,11, 0.00,60.00,Tuesday        
796,2024.9908013827
841,557.849476150599
846,1086.58914409049
851,736.88759233149
856,217.143388036871
861,829.509639724481
866,1926.52381156728
871,987.528698361559
875,0.0
898,0.0
901,0.0
904,0.0
907,0.0
910,0.0
913,0.0
916,0.0
2,3, 1, 3, 0,12, 0.00,60.00,Tuesday        
796,1680.76846703373
841,455.930852360071
846,941.732484935053
851,610.657518492062
856,190.742424706762
861,638.291048719275
866,1649.66352256821
871,847.897986780703
875,0.0
898,0.0
901,0.0
904,0.0
907,0.0
910,0.0
913,0.0
916,0.0
2,3, 1, 3, 0,13, 0.00,60.00,Tuesday        
796,1348.61224557452
841,368.69086551415
846,802.637863352581
851,500.483947055932
856,161.186172602031
861,429.948796274538
866,1389.6890360402
871,716.729949290353
875,0.0
898,0.0
901,0.0
904,0.0
907,0.0
910,0.0
913,0.0
916,0.0
2,3, 1, 3, 0,14, 0.00,60.00,Tuesday        
796,1030.98125129588
841,317.831870677741
846,702.302790862478
851,436.979232068741
856,133.176247076571
861,305.008595559218
866,1244.82991518433
871,642.911141111699
875,0.0
898,0.0
901,0.0
904,0.0
907,0.0
910,0.0
913,0.0
916,0.0
2,3, 1, 3, 0,15, 0.00,60.00,Tuesday        
796,777.291962961069
841,288.656358416482
846,648.533159128269
851,399.31214623839
856,122.876024670858
861,253.647580167285
866,1149.09709250446
871,593.718203755454
875,0.0
898,0.0
901,0.0
904,0.0
907,0.0
910,0.0
913,0.0
916,0.0
2,3, 1, 3, 0,16, 0.00,60.00,Tuesday        
796,797.617455482298
841,317.175099522448
846,753.79123750102
851,435.95296931374
856,171.168640026612
861,321.004132900031
866,1234.54210603908
871,635.326973093319
875,0.0
898,0.0
901,0.0
904,0.0
907,0.0
910,0.0
913,0.0
916,0.0
2,3, 1, 3, 0,17, 0.00,60.00,Tuesday        
796,1025.80430758635
841,348.986193106929
846,851.610414658523
851,469.541031425395
856,224.484289520006
861,393.326108540226
866,1262.89194513543
871,648.510047148028
875,0.0
898,0.0
901,0.0
904,0.0
907,0.0
910,0.0
913,0.0
916,0.0
2,3, 1, 3, 0,18, 0.00,60.00,Tuesday        
796,1150.6282502426
841,366.047654573333
846,913.832948872516
851,488.284442765818
856,258.732533113793
861,429.169214995097
866,1282.19697263563
871,657.50529570699
875,0.0
898,0.0
901,0.0
904,0.0
907,0.0
910,0.0
913,0.0
916,0.0
2,3, 1, 3, 0,19, 0.00,60.00,Tuesday        
796,2482.78627698175
841,684.56197815121
846,1922.85217173934
851,939.404809508935
856,591.068837076623
861,1191.29071830871
866,2696.77717839925
871,1363.94689437818
875,0.0
898,0.0
901,0.0
904,0.0
907,0.0
910,0.0
913,0.0
916,0.0
2,3, 1, 3, 0,20, 0.00,60.00,Tuesday        
796,2682.01271424054
841,731.676875223677
846,2076.84617420065
851,1003.59969294398
856,649.009603332845
861,1297.57515010799
866,2878.5923118936
871,1454.86524220702
875,0.0
898,0.0
901,0.0
904,0.0
907,0.0
910,0.0
913,0.0
916,0.0
2,3, 1, 3, 0,21, 0.00,60.00,Tuesday        
796,2830.77855503558
841,767.372342774423
846,2194.8696951942
851,1050.81129186494
856,696.016516851966
861,1381.29842168089
866,3003.63144540831
871,1517.17593472056
875,0.0
898,0.0
901,0.0
904,0.0
907,0.0
910,0.0
913,0.0
916,0.0
2,3, 1, 3, 0,22, 0.00,60.00,Tuesday        
796,0.0
841,0.0
846,0.0
851,0.0
856,0.0
861,0.0
866,0.0
871,0.0
875,0.0
898,0.0
901,0.0
904,0.0
907,0.0
910,0.0
913,0.0
916,0.0
2,3, 1, 3, 0,23, 0.00,60.00,Tuesday        
796,0.0
841,0.0
846,0.0
851,0.0
856,0.0
861,0.0
866,0.0
871,0.0
875,0.0
898,0.0
901,0.0
904,0.0
907,0.0
910,0.0
913,0.0
916,0.0
2,3, 1, 3, 0,24, 0.00,60.00,Tuesday        
796,0.0
841,0.0
846,0.0
851,0.0
856,0.0
861,0.0
866,0.0
871,0.0
875,0.0
898,0.0
901,0.0
904,0.0
907,0.0
910,0.0
913,0.0
916,0.0
2,4, 1, 4, 0, 1, 0.00,60.00,Wednesday      
796,0.0
841,0.0
846,0.0
851,0.0
856,0.0
861,0.0
866,0.0
871,0.0
875,0.0
898,0.0
901,0.0
904,0.0
907,0.0
910,0.0
913,0.0
916,0.0
2,4, 1, 4, 0, 2, 0.00,60.00,Wednesday      
796,0.0
841,0.0
846,0.0
851,0.0
856,0.0
861,0.0
866,0.0
871,0.0
875,0.0
898,0.0
901,0.0
904,0.0
907,0.0
910,0.0
913,0.0
916,0.0
2,4, 1, 4, 0, 3, 0.00,60.00,Wednesday      
796,0.0
841,0.0
846,0.0
851,0.0
856,0.0
861,0.0
866,0.0
871,0.0
875,0.0
898,0.0
901,0.0
904,0.0
907,0.0
910,0.0
913,0.0
916,0.0
2,4, 1, 4, 0, 4, 0.00,60.00,Wednesday      
796,0.0
841,0.0
846,0.0
851,0.0
856,0.0
861,0.0
866,0.0
871,0.0
875,0.0
898,0.0
901,0.0
904,0.0
907,0.0
910,0.0
913,0.0
916,0.0
2,4, 1, 4, 0, 5, 0.00,60.00,Wednesday      
796,0.0
841,0.0
846,0.0
851,0.0
856,0.0
861,0.0
866,0.0
871,0.0
875,0.0
898,0.0
901,0.0
904,0.0
907,0.0
910,0.0
913,0.0
916,0.0
2,4, 1, 4, 0, 6, 0.00,60.00,Wednesday      
796,0.0
841,0.0
846,0.0
851,0.0
856,0.0
861,0.0
866,0.0
871,0.0
875,0.0
898,0.0
901,0.0
904,0.0
907,0.0
910,0.0
913,0.0
916,0.0
2,4, 1, 4, 0, 7, 0.00,60.00,Wednesday      
796,0.0
841,0.0
846,0.0
851,0.0
856,0.0
861,0.0
866,0.0
871,0.0
875,0.0
898,0.0
901,0.0
904,0.0
907,0.0
910,0.0
913,0.0
916,0.0
2,4, 1, 4, 0, 8, 0.00,60.00,Wednesday      
796,3457.85653743891
841,983.344634418221
846,2647.63502079908
851,1257.74729196589
856,936.751615313862
861,1642.96813975692
866,3039.62508041321
871,1536.05053132937
875,0.0
898,0.0
901,0.0
904,0.0
907,0.0
910,0.0
913,0.0
916,0.0
2,4, 1, 4, 0, 9, 0.00,60.00,Wednesday      
796,3148.78769824651
841,873.747318248173
846,2218.53088921564
851,1136.03008785661
856,700.338991627029
861,1530.01538721783
866,2848.57773521735
871,1451.62831092496
875,0.0
898,0.0
901,0.0
904,0.0
907,0.0
910,0.0
913,0.0
916,0.0
2,4, 1, 4, 0,10, 0.00,60.00,Wednesday      
796,2710.92459076381
841,745.174129309938
846,1883.0495389297
851,973.300843405606
856,581.554753423587
861,1332.97939805807
866,2477.36572461618
871,1263.47929239431
875,0.0
898,0.0
901,0.0
904,0.0
907,0.0
910,0.0
913,0.0
916,0.0
2,4, 1, 4, 0,11, 0.00,60.00,Wednesday      
796,2454.75643729973
841,663.150055216622
846,1674.6840523295
851,875.366088917649
856,499.202570459125
861,1204.54448492641
866,2292.89121354023
871,1170.12295396153
875,0.0
898,0.0
901,0.0
904,0.0
907,0.0
910,0.0
913,0.0
916,0.0
2,4, 1, 4, 0,12, 0.00,60.00,Wednesday      
796,2184.11454959885
841,582.503419658696
846,1483.9326313167
851,779.09316788379
856,426.514754451272
861,1017.31826308319
866,2103.89119894832
871,1074.84862353965
875,0.0
898,0.0
901,0.0
904,0.0
907,0.0
910,0.0
913,0.0
916,0.0
2,4, 1, 4, 0,13, 0.00,60.00,Wednesday      
796,1934.50387188025
841,516.008625693024
846,1371.89695331317
851,697.756892699071
856,395.608619109112
861,880.622222130296
866,1929.91854533008
871,987.083690160751
875,0.0
898,0.0
901,0.0
904,0.0
907,0.0
910,0.0
913,0.0
916,0.0
2,4, 1, 4, 0,14, 0.00,60.00,Wednesday      
796,1671.67650680266
841,476.542450415483
846,1288.931881485
851,650.226518163756
856,367.344105717475
861,769.329140375522
866,1832.5655657735
871,937.51529010567
875,0.0
898,0.0
901,0.0
904,0.0
907,0.0
910,0.0
913,0.0
916,0.0
2,4, 1, 4, 0,15, 0.00,60.00,Wednesday      
796,1587.2819451618
841,470.890913397835
846,1288.54977122316
851,642.820827310562
856,373.229260340139
861,783.60331615614
866,1810.65617041287
871,925.585190416828
875,0.0
898,0.0
901,0.0
904,0.0
907,0.0
910,0.0
913,0.0
916,0.0
2,4, 1, 4, 0,16, 0.00,60.00,Wednesday      
796,1500.27393764192
841,463.019052549969
846,1269.82922733796
851,627.791176167087
856,377.553662481454
861,760.816860956504
866,1736.25624800646
871,887.438218930738
875,0.0
898,0.0
901,0.0
904,0.0
907,0.0
910,0.0
913,0.0
916,0.0
2,4, 1, 4, 0,17, 0.00,60.00,Wednesday      
796,1632.56587455092
841,479.497613606862
846,1312.14267877538
851,640.129053826163
856,410.030064194178
861,783.882001091797
866,1698.61246160935
871,867.825346228108
875,0.0
898,0.0
901,0.0
904,0.0
907,0.0
910,0.0
913,0.0
916,0.0
2,4, 1, 4, 0,18, 0.00,60.00,Wednesday      
796,1684.49274322422
841,485.778793831658
846,1333.02795141591
851,643.701955840621
856,427.820082974616
861,786.820110777978
866,1673.49887657921
871,854.683609880094
875,0.0
898,0.0
901,0.0
904,0.0
907,0.0
910,0.0
913,0.0
916,0.0
2,4, 1, 4, 0,19, 0.00,60.00,Wednesday      
796,2971.3296323011
841,795.343045359303
846,2307.49967335939
851,1082.21809623063
856,746.67872986671
861,1525.09182574586
866,3049.59714929196
871,1541.96870637931
875,0.0
898,0.0
901,0.0
904,0.0
907,0.0
910,0.0
913,0.0
916,0.0
2,4, 1, 4, 0,20, 0.00,60.00,Wednesday      
796,3062.74088196848
841,816.513955738522
846,2377.3967231362
851,1110.24701596675
856,774.938588615721
861,1570.76183575343
866,3122.23839339936
871,1578.23160733701
875,0.0
898,0.0
901,0.0
904,0.0
907,0.0
910,0.0
913,0.0
916,0.0
2,4, 1, 4, 0,21, 0.00,60.00,Wednesday      
796,3140.33788146028
841,835.881128504436
846,2439.40317617123
851,1135.04080513674
856,800.960576208658
861,1613.61164197047
866,3181.34776737091
871,1607.69270094551
875,0.0
898,0.0
901,0.0
904,0.0
907,0.0
910,0.0
913,0.0
916,0.0
2,4, 1, 4, 0,22, 0.00,60.00,Wednesday      
796,0.0
841,0.0
846,0.0
851,0.0
856,0.0
861,0.0
866,0.0
871,0.0
875,0.0
898,0.0
901,0.0
904,0.0
907,0.0
910,0.0
913,0.0
916,0.0
2,4, 1, 4, 0,23, 0.00,60.00,Wednesday      
796,0.0
841,0.0
846,0.0
851,0.0
856,0.0
861,0.0
866,0.0
871,0.0
875,0.0
898,0.0
901,0.0
904,0.0
907,0.0
910,0.0
913,0.0
916,0.0
2,4, 1, 4, 0,24, 0.00,60.00,Wednesday      
796,0.0
841,0.0
846,0.0
851,0.0
856,0.0
861,0.0
866,0.0
871,0.0
875,0.0
898,0.0
901,0.0
904,0.0
907,0.0
910,0.0
913,0.0
916,0.0
2,5, 1, 5, 0, 1, 0.00,60.00,Thursday       
796,0.0
841,0.0
846,0.0
851,0.0
856,0.0
861,0.0
866,0.0
871,0.0
875,0.0
898,0.0
901,0.0
904,0.0
907,0.0
910,0.0
913,0.0
916,0.0
2,5, 1, 5, 0, 2, 0.00,60.00,Thursday       
796,0.0
841,0.0
846,0.0
851,0.0
856,0.0
861,0.0
866,0.0
871,0.0
875,0.0
898,0.0
901,0.0
904,0.0
907,0.0
910,0.0
913,0.0
916,0.0
2,5, 1, 5, 0, 3, 0.00,60.00,Thursday       
796,0.0
841,0.0
846,0.0
851,0.0
856,0.0
861,0.0
866,0.0
871,0.0
875,0.0
898,0.0
901,0.0
904,0.0
907,0.0
910,0.0
913,0.0
916,0.0
2,5, 1, 5, 0, 4, 0.00,60.00,Thursday       
796,0.0
841,0.0
846,0.0
851,0.0
856,0.0
861,0.0
866,0.0
871,0.0
875,0.0
898,0.0
901,0.0
904,0.0
907,0.0
910,0.0
913,0.0
916,0.0
2,5, 1, 5, 0, 5, 0.00,60.00,Thursday       
796,0.0
841,0.0
846,0.0
851,0.0
856,0.0
861,0.0
866,0.0
871,0.0
875,0.0
898,0.0
901,0.0
904,0.0
907,0.0
910,0.0
913,0.0
916,0.0
2,5, 1, 5, 0, 6, 0.00,60.00,Thursday       
796,0.0
841,0.0
846,0.0
851,0.0
856,0.0
861,0.0
866,0.0
871,0.0
875,0.0
898,0.0
901,0.0
904,0.0
907,0.0
910,0.0
913,0.0
916,0.0
2,5, 1, 5, 0, 7, 0.00,60.00,Thursday       
796,0.0
841,0.0
846,0.0
851,0.0
856,0.0
861,0.0
866,0.0
871,0.0
875,0.0
898,0.0
901,0.0
904,0.0
907,0.0
910,0.0
913,0.0
916,0.0
2,5, 1, 5, 0, 8, 0.00,60.00,Thursday       
796,3716.14211715525
841,1057.61718663356
846,2831.52459543393
851,1326.11028243784
856,1026.83871536897
861,1861.07368125094
866,3146.42664050589
871,1595.43704240255
875,0.0
898,0.0
901,0.0
904,0.0
907,0.0
910,0.0
913,0.0
916,0.0
2,5, 1, 5, 0, 9, 0.00,60.00,Thursday       
796,3448.75399383993
841,944.10246769229
846,2365.01307499164
851,1220.03570567612
856,744.770020385581
861,1717.25327750598
866,3014.8032245295
871,1539.01552459439
875,0.0
898,0.0
901,0.0
904,0.0
907,0.0
910,0.0
913,0.0
916,0.0
2,5, 1, 5, 0,10, 0.00,60.00,Thursday       
796,3058.26493127717
841,827.114792504842
846,1994.93050591525
851,1076.87769280544
856,591.276925269413
861,1517.5585745662
866,2721.92074644125
871,1389.59288644284
875,0.0
898,0.0
901,0.0
904,0.0
907,0.0
910,0.0
913,0.0
916,0.0
2,5, 1, 5, 0,11, 0.00,60.00,Thursday       
796,2729.37812883609
841,729.288809822016
846,1679.62054045747
851,958.502452270477
856,458.933799369548
861,1282.77968388702
866,2478.77808867743
871,1266.57997178705
875,0.0
898,0.0
901,0.0
904,0.0
907,0.0
910,0.0
913,0.0
916,0.0
2,5, 1, 5, 0,12, 0.00,60.00,Thursday       
796,2461.69431841737
841,651.124260689759
846,1564.61133842743
851,862.836287426767
856,435.834981550988
861,1072.5871319414
866,2271.94210810727
871,1162.05997414027
875,0.0
898,0.0
901,0.0
904,0.0
907,0.0
910,0.0
913,0.0
916,0.0
2,5, 1, 5, 0,13, 0.00,60.00,Thursday       
796,2227.44384362346
841,597.838310228553
846,1524.05748398299
851,796.104604128128
856,443.529264638476
861,895.182980987615
866,2118.9270159154
871,1084.38802202049
875,0.0
898,0.0
901,0.0
904,0.0
907,0.0
910,0.0
913,0.0
916,0.0
2,5, 1, 5, 0,14, 0.00,60.00,Thursday       
796,1825.14526801183
841,536.739083360739
846,1389.38330107525
851,719.352673758
856,401.392251026897
861,728.18464704891
866,1937.40181512271
871,992.290085922392
875,0.0
898,0.0
901,0.0
904,0.0
907,0.0
910,0.0
913,0.0
916,0.0
2,5, 1, 5, 0,15, 0.00,60.00,Thursday       
796,1406.85146501315
841,490.376288929271
846,1277.16600571336
851,659.604898697916
856,366.88209539222
861,610.155607741369
866,1784.67475972535
871,914.437954458507
875,0.0
898,0.0
901,0.0
904,0.0
907,0.0
910,0.0
913,0.0
916,0.0
2,5, 1, 5, 0,16, 0.00,60.00,Thursday       
796,1236.41090695843
841,494.587896458207
846,1302.96044969118
851,663.148958663009
856,385.941072900076
861,612.197031497959
866,1775.60422887321
871,908.436173585158
875,0.0
898,0.0
901,0.0
904,0.0
907,0.0
910,0.0
913,0.0
916,0.0
2,5, 1, 5, 0,17, 0.00,60.00,Thursday       
796,1442.97122157502
841,504.665067331054
846,1329.46790369966
851,666.733311017396
856,413.426498250163
861,656.421310454954
866,1718.52706180061
871,878.763649353089
875,0.0
898,0.0
901,0.0
904,0.0
907,0.0
910,0.0
913,0.0
916,0.0
2,5, 1, 5, 0,18, 0.00,60.00,Thursday       
796,1599.72808791212
841,516.489727918039
846,1371.96165157295
851,678.799002654543
856,439.117271390315
861,686.458460563834
866,1721.03609332925
871,879.385942036359
875,0.0
898,0.0
901,0.0
904,0.0
907,0.0
910,0.0
913,0.0
916,0.0
2,5, 1, 5, 0,19, 0.00,60.00,Thursday       
796,2943.39990170599
841,833.880123707776
846,2374.08950633136
851,1128.73912164431
856,767.440178156537
861,1445.70051287893
866,3134.27141532472
871,1585.35219242775
875,0.0
898,0.0
901,0.0
904,0.0
907,0.0
910,0.0
913,0.0
916,0.0
2,5, 1, 5, 0,20, 0.00,60.00,Thursday       
796,3037.32855442595
841,851.431428833084
846,2436.58102779142
851,1152.1611034286
856,793.37325475888
861,1486.22098892695
866,3197.34201004192
871,1617.02851065569
875,0.0
898,0.0
901,0.0
904,0.0
907,0.0
910,0.0
913,0.0
916,0.0
2,5, 1, 5, 0,21, 0.00,60.00,Thursday       
796,3160.34910263654
841,879.005430868712
846,2528.27944081071
851,1188.49751223277
856,830.394212227027
861,1551.01373576826
866,3290.79453959907
871,1663.42778382655
875,0.0
898,0.0
901,0.0
904,0.0
907,0.0
910,0.0
913,0.0
916,0.0
2,5, 1, 5, 0,22, 0.00,60.00,Thursday       
796,0.0
841,0.0
846,0.0
851,0.0
856,0.0
861,0.0
866,0.0
871,0.0
875,0.0
898,0.0
901,0.0
904,0.0
907,0.0
910,0.0
913,0.0
916,0.0
2,5, 1, 5, 0,23, 0.00,60.00,Thursday       
796,0.0
841,0.0
846,0.0
851,0.0
856,0.0
861,0.0
866,0.0
871,0.0
875,0.0
898,0.0
901,0.0
904,0.0
907,0.0
910,0.0
913,0.0
916,0.0
2,5, 1, 5, 0,24, 0.00,60.00,Thursday       
796,0.0
841,0.0
846,0.0
851,0.0
856,0.0
861,0.0
866,0.0
871,0.0
875,0.0
898,0.0
901,0.0
904,0.0
907,0.0
910,0.0
913,0.0
916,0.0
2,6, 1, 6, 0, 1, 0.00,60.00,Friday         
796,0.0
841,0.0
846,0.0
851,0.0
856,0.0
861,0.0
866,0.0
871,0.0
875,0.0
898,0.0
901,0.0
904,0.0
907,0.0
910,0.0
913,0.0
916,0.0
2,6, 1, 6, 0, 2, 0.00,60.00,Friday         
796,0.0
841,0.0
846,0.0
851,0.0
856,0.0
861,0.0
866,0.0
871,0.0
875,0.0
898,0.0
901,0.0
904,0.0
907,0.0
910,0.0
913,0.0
916,0.0
2,6, 1, 6, 0, 3, 0.00,60.00,Friday         
796,0.0
841,0.0
846,0.0
851,0.0
856,0.0
861,0.0
866,0.0
871,0.0
875,0.0
898,0.0
901,0.0
904,0.0
907,0.0
910,0.0
913,0.0
916,0.0
2,6, 1, 6, 0, 4, 0.00,60.00,Friday         
796,0.0
841,0.0
846,0.0
851,0.0
856,0.0
861,0.0
866,0.0
871,0.0
875,0.0
898,0.0
901,0.0
904,0.0
907,0.0
910,0.0
913,0.0
916,0.0
2,6, 1, 6, 0, 5, 0.00,60.00,Friday         
796,0.0
841,0.0
846,0.0
851,0.0
856,0.0
861,0.0
866,0.0
871,0.0
875,0.0
898,0.0
901,0.0
904,0.0
907,0.0
910,0.0
913,0.0
916,0.0
2,6, 1, 6, 0, 6, 0.00,60.00,Friday         
796,0.0
841,0.0
846,0.0
851,0.0
856,0.0
861,0.0
866,0.0
871,0.0
875,0.0
898,0.0
901,0.0
904,0.0
907,0.0
910,0.0
913,0.0
916,0.0
2,6, 1, 6, 0, 7, 0.00,60.00,Friday         
796,0.0
841,0.0
846,0.0
851,0.0
856,0.0
861,0.0
866,0.0
871,0.0
875,0.0
898,0.0
901,0.0
904,0.0
907,0.0
910,0.0
913,0.0
916,0.0
2,6, 1, 6, 0, 8, 0.00,60.00,Friday         
796,3648.59410461095
841,1078.48265487101
846,2823.78810630787
851,1345.65983637482
856,1014.93830397327
861,1719.88989894098
866,3149.61893478091
871,1595.24036158066
875,0.0
898,0.0
901,0.0
904,0.0
907,0.0
910,0.0
913,0.0
916,0.0
2,6, 1, 6, 0, 9, 0.00,60.00,Friday         
796,3554.18060799997
841,998.79459563952
846,2379.56861922264
851,1291.80843739853